TACC: Starting up job 1398980
TACC: Setting up parallel environment for MVAPICH2+mpispawn.
TACC: Starting parallel tasks...
 PAPI Version 84017152
 Number of hardware counters: 11
 Number of CPUs in an SMP Node: 8
 Number of nodes in the entire system: 2
 Total number of CPUs in the entire system: 16
 Model string of CPU: Intel(R) Xeon(R) CPU E5-2680 0 @ 2.70GHz
  ABINIT 
  
  Give name for formatted input file: 
tbase1_1.in
  Give name for formatted output file:
tbase1_x.out
  Give root name for generic input files:
tbase1_xi
  Give root name for generic output files:
tbase1_xo
  Give root name for generic temporary files:
tbase1_x
-P-0000  leave_test : synchronization done...

.Version 7.2.2 of ABINIT 
.(MPI version, prepared for a x86_64_linux_intel13.1 computer) 

.Copyright (C) 1998-2013 ABINIT group . 
 ABINIT comes with ABSOLUTELY NO WARRANTY.
 It is free software, and you are welcome to redistribute it
 under certain conditions (GNU General Public License,
 see ~abinit/COPYING or http://www.gnu.org/copyleft/gpl.txt).

 ABINIT is a project of the Universite Catholique de Louvain,
 Corning Inc. and other collaborators, see ~abinit/doc/developers/contributors.txt .
 Please read ~abinit/doc/users/acknowledgments.html for suggested
 acknowledgments of the ABINIT effort.
 For more information, see http://www.abinit.org .

.Starting date : Fri  9 Aug 2013.
- ( at 11h06 )
  
 
 ++++++++++++++++++++++++++++++++++++++++++++++++++++++++++++++++++++++++++++++
 
 === Build Information === 
  Version       : 7.2.2
  Build target  : x86_64_linux_intel13.1
  Build date    : 20130808
 
 === Compiler Suite === 
  C compiler       : intel13.1
  CFLAGS           :   -O3 -vec-report0
  C++ compiler     : gnu13.1
  CXXFLAGS         : -m64  -O3 -mtune=native -march=native
  Fortran compiler : intel13.1
  FCFLAGS          :   -extend-source -vec-report0 -noaltparam -nofpscomp
  FC_LDFLAGS       :    -static-intel -static-libgcc
 
 === Optimizations === 
  Debug level        : no
  Optimization level : aggressive
  Architecture       : intel_xeon
 
 === MPI === 
  Parallel build : yes
  Parallel I/O   : yes
  Time tracing   : no
  GPU support    : no
 
 === Connectors / Fallbacks === 
  Connectors on : yes
  Fallbacks on  : yes
  DFT flavor    : libxc-fallback+wannier90-fallback
  FFT flavor    : fftw3-mpi
  LINALG flavor : mkl+scalapack
  MATH flavor   : gsl
  TIMER flavor  : papi
  TRIO flavor   : netcdf
 
 === Experimental features === 
  Bindings            : no
  Exports             : no
  GW double-precision : no
 
 ++++++++++++++++++++++++++++++++++++++++++++++++++++++++++++++++++++++++++++++
 

 ++++++++++++++++++++++++++++++++++++++++++++++++++++++++++++++++++++++++++++++
 Default optimizations:
   -O3 -xHOST


 ++++++++++++++++++++++++++++++++++++++++++++++++++++++++++++++++++++++++++++++


 ++++++++++++++++++++++++++++++++++++++++++++++++++++++++++++++++++++++++++++++
 CPP options activated during the build:

                  CC_INTEL                   CXX_GNU                  FC_INTEL

               HAVE_CCLOCK            HAVE_DFT_LIBXC        HAVE_DFT_WANNIER90

 HAVE_FC_ALLOCATABLE_DT...        HAVE_FC_CONTIGUOUS           HAVE_FC_CPUTIME

             HAVE_FC_ETIME              HAVE_FC_EXIT             HAVE_FC_FLUSH

             HAVE_FC_GAMMA            HAVE_FC_GETENV            HAVE_FC_GETPID

             HAVE_FC_IOMSG     HAVE_FC_ISO_C_BINDING        HAVE_FC_LONG_LINES

              HAVE_FC_NULL         HAVE_FC_STREAM_IO                  HAVE_FFT

            HAVE_FFT_FFTW3        HAVE_FFT_FFTW3_MPI    HAVE_FFT_FFTW3_THREADS

              HAVE_FFT_MPI           HAVE_FFT_SERIAL               HAVE_LINALG

         HAVE_LINALG_AXPBY        HAVE_LINALG_GEMM3M  HAVE_LINALG_MKL_IMATCOPY

   HAVE_LINALG_MKL_OMATADD  HAVE_LINALG_MKL_OMATCOPY           HAVE_LINALG_MPI

     HAVE_LINALG_SCALAPACK        HAVE_LINALG_SERIAL                 HAVE_MATH

             HAVE_MATH_GSL          HAVE_MATH_SERIAL                  HAVE_MPI

                 HAVE_MPI2               HAVE_MPI_IO HAVE_MPI_TYPE_CREATE_S...

             HAVE_OS_LINUX                HAVE_TIMER           HAVE_TIMER_PAPI

         HAVE_TIMER_SERIAL          HAVE_TRIO_NETCDF
 ++++++++++++++++++++++++++++++++++++++++++++++++++++++++++++++++++++++++++++++

- input  file    -> tbase1_1.in
- output file    -> tbase1_x.out
- root for input  files -> tbase1_xi
- root for output files -> tbase1_xo

-instrng :    68 lines of input have been read from file tbase1_1.in


 iofn2 : Please give name of formatted atomic psp file
 iofn2 : for atom type   1 , psp file is /work/02288/mgs763/abinit-7.2.2_src/tests/Psps_for_tests/01h.pspgth
-P-0000   read the values zionpsp=  1.0 , pspcod=   2 , lmax=   0
-P-0000
-P-0000  inpspheads : deduce mpsang  =   1, n1xccc  =   0.
-P-0000  leave_test : synchronization done...

 invars1m : enter jdtset=     0
 invars1 : treat image number     1

 symlatt : the Bravais lattice is cP (primitive cubic)
  xcart  is defined in input file
 ingeo : takes atomic coordinates from input array xcart

 symlatt : the Bravais lattice is cP (primitive cubic)

 symlatt : the Bravais lattice is cP (primitive cubic)

 symbrav : COMMENT -
  The Bravais lattice determined only from the primitive
  vectors, bravais(1)=  7, is more symmetric
  than the real one, iholohedry=  4, obtained by taking into
  account the atomic positions. Start deforming the primitive vector set.

 symlatt : the Bravais lattice is tP (primitive tetragonal)
 symspgr : the symmetry operation no.   1 is the identity
 symspgr : the symmetry operation no.   2 is an inversion
 symaxes : the symmetry operation no.   3 is a 2-axis
 symplanes : the symmetry operation no.   4 is a mirror plane
 symaxes : the symmetry operation no.   5 is a 2-axis
 symplanes : the symmetry operation no.   6 is a mirror plane
 symaxes : the symmetry operation no.   7 is a 2-axis
 symplanes : the symmetry operation no.   8 is a mirror plane
 symplanes : the symmetry operation no.   9 is a mirror plane
 symaxes : the symmetry operation no.  10 is a tertiary 2-axis
 symspgr : the symmetry operation no.  11 is a -4 axis
 symaxes : the symmetry operation no.  12 is a 4-axis
 symspgr : the symmetry operation no.  13 is a -4 axis
 symaxes : the symmetry operation no.  14 is a 4-axis
 symplanes : the symmetry operation no.  15 is a mirror plane
 symaxes : the symmetry operation no.  16 is a tertiary 2-axis
 symspgr : spgroup= 123  P4/m m m   (=D4h^1)
 inkpts: Sum of    1 k point weights is    1.000000
 invars2: take the default value of fband=  1.25000000E-01
 inkpts: Sum of    1 k point weights is    1.000000
  dtset%nelect=   2.00000000000000     
 chkneu : initialized the occupation numbers for occopt=    1
    spin-unpolarized case :
  2.00  0.00
  mpi_setup : enter 
 getmpw sequential formula gave:     1510

 Computing all possible proc distrib for this input with nproc less than     16
     npimage|       npkpt|    npspinor|       npfft|      npband|     bandpp |       nproc|      weight|
   1 ->    1|   1 ->    1|   1 ->    1|   1 ->   16|   1 ->    2|   1 ->    4|   2 ->   16|   1 ->   16|
           1|           1|           1|           4|           1|           1|           4|       3.31 |
           1|           1|           1|           3|           1|           1|           3|       2.55 |
           1|           1|           1|          16|           1|           1|          16|       2.23 |
           1|           1|           1|          15|           1|           1|          15|       2.21 |
           1|           1|           1|          12|           1|           1|          12|       2.12 |
npfft, npband, npspinor and npkpt:     4    1    1    1
 mpi_setup1: mkmem  undefined in the input file. Use default mkmem  = nkpt
 mpi_setup1: With nkpt_me=    1 and mkmem  =     1, ground state wf handled in core.
 mpi_setup1: mkqmem undefined in the input file. Use default mkqmem = nkpt
 mpi_setup1: With nkpt_me=    1 and mkqmem =     1, ground state wf handled in core.
 mpi_setup1: mk1mem undefined in the input file. Use default mk1mem = nkpt
 mpi_setup1: With nkpt_me=    1 and mk1mem =     1, ground state wf handled in core.

 getng.F90:199:WARNING
   The second and third dimension of the FFT grid,    0    0  were imposed to be multiple of the number of processors for the FFT,    4
 For input ecut=  1.000000E+01 best grid ngfft=      30      32      32
       max ecut=  1.110330E+01

 ==== FFT mesh ====
  FFT mesh divisions ........................    30   32   32
  Augmented FFT divisions ...................    31   33   32
  FFT algorithm .............................   401
  FFT cache size ............................    16
 getmpw: optimal value of mpw=     190

 Symmetries : space group P4/m m m (#123); Bravais tP (primitive tetrag.)

 getdim_nloc : COMMENT -
  Despite there is only a local part to pseudopotential(s),
  lmnmax and lnmax are set to 1.

 getdim_nloc : deduce lmnmax  =   1, lnmax  =   1,
                      lmnmaxso=   1, lnmaxso=   1.
 setmqgrid : COMMENT -
  The number of points "mqgrid" in reciprocal space used for the
  description of the pseudopotentials has been set automatically
  by abinit to :     3001.
 memory : analysis of memory needs
================================================================================
 Values of the parameters that define the memory need of the present run
   intxc =         0  ionmov =         0    iscf =         7 xclevel =         1
  lmnmax =         1   lnmax =         1   mband =         2  mffmem =         1
P  mgfft =        32   mkmem =         1 mpssoang=         1     mpw =       190
  mqgrid =      3001   natom =         2    nfft =      7680    nkpt =         1
  nloalg =         4  nspden =         1 nspinor =         1  nsppol =         1
    nsym =        16  n1xccc =         0  ntypat =         1  occopt =         1
================================================================================
P This job should need less than                       3.587 Mbytes of memory.
  Rough estimation (10% accuracy) of disk space for files :
_ WF disk file :      0.025 Mbytes ; DEN or POT disk file :      0.061 Mbytes.
================================================================================

 Biggest array : f_fftgr(disk), with      0.9395 MBytes.
-P-0000  leave_test : synchronization done...
 memana : allocated an array of      0.940 Mbytes, for testing purposes.
 memana : allocated       3.587 Mbytes, for testing purposes.
 The job will continue.
--------------------------------------------------------------------------------
------------- Echo of variables that govern the present computation ------------
--------------------------------------------------------------------------------
-
- outvars: echo of selected default values                                      
-   accesswff0 =  0 , fftalg0 =312 , wfoptalg0 =  0
-
- outvars: echo of global parameters not present in the input file              
-  max_nthreads =    0
-
 -outvars: echo values of preprocessed input variables --------
        accesswff           1
            acell      1.0000000000E+01  1.0000000000E+01  1.0000000000E+01 Bohr
              amu      1.00794000E+00
           diemac      2.00000000E+00
             ecut      1.00000000E+01 Hartree
           fftalg         401
      fft_opt_lob           2
           iprcch           6
           istwfk        2
           kptopt           0
P           mkmem           1
            natom           2
            nband           2
            ngfft          30      32      32
             nkpt           1
            npfft           4
            nstep          10
             nsym          16
           ntypat           1
              occ      2.000000  0.000000
        optforces           1
           ortalg          -2
        paral_kgb           1
          spgroup         123
           symrel      1  0  0   0  1  0   0  0  1      -1  0  0   0 -1  0   0  0 -1
                      -1  0  0   0  1  0   0  0 -1       1  0  0   0 -1  0   0  0  1
                      -1  0  0   0 -1  0   0  0  1       1  0  0   0  1  0   0  0 -1
                       1  0  0   0 -1  0   0  0 -1      -1  0  0   0  1  0   0  0  1
                       1  0  0   0  0  1   0  1  0      -1  0  0   0  0 -1   0 -1  0
                      -1  0  0   0  0  1   0 -1  0       1  0  0   0  0 -1   0  1  0
                      -1  0  0   0  0 -1   0  1  0       1  0  0   0  0  1   0 -1  0
                       1  0  0   0  0 -1   0 -1  0      -1  0  0   0  0  1   0  1  0
           toldfe      1.00000000E-06 Hartree
            typat      1  1
         wfoptalg          14
           xangst     -3.7042404601E-01  0.0000000000E+00  0.0000000000E+00
                       3.7042404601E-01  0.0000000000E+00  0.0000000000E+00
            xcart     -7.0000000000E-01  0.0000000000E+00  0.0000000000E+00
                       7.0000000000E-01  0.0000000000E+00  0.0000000000E+00
             xred     -7.0000000000E-02  0.0000000000E+00  0.0000000000E+00
                       7.0000000000E-02  0.0000000000E+00  0.0000000000E+00
            znucl        1.00000

================================================================================
-P-0000  leave_test : synchronization done...

 chkinp: machine precision is   2.2204460492503131E-16

 chkinp: Checking input parameters for consistency.
 DATA TYPE INFORMATION: 
 REAL:      Data type name: REAL(DP) 
            Kind value:      8
            Precision:      15
            Smallest nonnegligible quantity relative to 1:  0.22204460E-15
            Smallest positive number:                       0.22250739-307
            Largest representable number:                   0.17976931+309
 INTEGER:   Data type name: INTEGER(default) 
            Kind value: 4
            Bit size:   32
            Largest representable number: 2147483647
 LOGICAL:   Data type name: LOGICAL 
            Kind value: 4
 CHARACTER: Data type name: CHARACTER             Kind value: 1
 ==== OpenMP parallelism is OFF ====
 
  ==== Using MPI-2 specifications ==== 
  MPI-IO support is ON
  xmpi_tag_ub ................   1073741823
  xmpi_bsize_ch ..............            1
  xmpi_bsize_int .............            4
  xmpi_bsize_sp ..............            4
  xmpi_bsize_dp ..............            8
  xmpi_bsize_spc .............            8
  xmpi_bsize_dpc .............           16
  xmpio_bsize_frm ............            4
  xmpi_address_kind ..........            8
  xmpi_offset_kind ...........            8
  MPI_WTICK ..................   1.000000000000000E-006
-P-0000
-P-0000 ================================================================================
-P-0000 == DATASET  1 ==================================================================
-P-0000 -   nproc =    4
-P-0000
 setmqgrid : COMMENT -
  The number of points "mqgrid" in reciprocal space used for the
  description of the pseudopotentials has been set automatically
  by abinit to :     3001.

 getdim_nloc : COMMENT -
  Despite there is only a local part to pseudopotential(s),
  lmnmax and lnmax are set to 1.

 getdim_nloc : deduce lmnmax  =   1, lnmax  =   1,
                      lmnmaxso=   1, lnmaxso=   1.
 Exchange-correlation functional for the present dataset will be:
  LDA: new Teter (4/93) with spin-polarized option - ixc=1
 Citation for XC functional:
  S. Goedecker, M. Teter, J. Huetter, PRB 54, 1703 (1996)
 
 Unit cell volume ucvol=  1.0000000E+03 bohr^3
 Angles (23,13,12)=  9.00000000E+01  9.00000000E+01  9.00000000E+01 degrees

 getcut: wavevector=  0.0000  0.0000  0.0000  ngfft=  30  32  32
         ecut(hartree)=     10.000   => boxcut(ratio)=   2.10744
 kpgio: loop on k-points done in parallel
- pspini: atom type   1  psp file is /work/02288/mgs763/abinit-7.2.2_src/tests/Psps_for_tests/01h.pspgth
- pspatm: opening atomic psp file    /work/02288/mgs763/abinit-7.2.2_src/tests/Psps_for_tests/01h.pspgth
- Goedecker-Teter-Hutter  Wed May  8 14:27:44 EDT 1996
-  1.00000   1.00000    960508                znucl, zion, pspdat
    2    1    0    0      2001   0.00000      pspcod,pspxc,lmax,lloc,mmax,r2well
 rloc=   0.2000000
  cc1=  -4.0663326; cc2=   0.6778322; cc3=   0.0000000; cc4=   0.0000000
  rrs=   0.0000000; h1s=   0.0000000; h2s=   0.0000000
  rrp=   0.0000000; h1p=   0.0000000
-  Local part computed in reciprocal space.

 pspatm : COMMENT -
  the projectors are not normalized,
  so that the KB energies are not consistent with 
  definition in PRB44, 8503 (1991). 
  However, this does not influence the results obtained hereafter.
 pspatm: epsatm=   -0.00480358
         --- l  ekb(1:nproj) -->
 pspatm: atomic psp has been read  and splines computed

  -1.92143215E-02                                ecore*ucvol(ha*bohr**3)
 symatm: atom number     1 is reached starting at atom
   1  2  2  1  2  1  1  2  1  2  2  1  2  1  1  2
 symatm: atom number     2 is reached starting at atom
   2  1  1  2  1  2  2  1  2  1  1  2  1  2  2  1
-P-0000  wfconv:     2 bands initialized randomly with npw=   190, for ikpt=     1
-P-0000  leave_test : synchronization done...
 pareigocc : MPI_ALLREDUCE
 
_setup2: Arith. and geom. avg. npw (full set) are     379.000     379.000
 initro : for itypat=  1, take decay length=      0.6000,
 initro : indeed, coreel=      0.0000, nval=  1 and densty=  0.0000E+00.

================================================================================

 getcut: wavevector=  0.0000  0.0000  0.0000  ngfft=  30  32  32
         ecut(hartree)=     10.000   => boxcut(ratio)=   2.10744

 ewald : nr and ng are    3 and   15

 ITER STEP NUMBER     1
 vtorho : nnsclo_now=  2, note that nnsclo,dbl_nnsclo,istep=  0 0  1
-P-0000  leave_test : synchronization done...
 vtorho: loop on k-points and spins done in parallel
 Total charge density [el/Bohr^3]
,     Maximum=    2.8920E-01  at reduced coord.    0.0000    0.0000    0.0000
,     Minimum=    2.3192E-10  at reduced coord.    0.3667    0.4375    0.1875
,  Integrated=    2.0000E+00
 ETOT  1  -1.1013607079059    -1.101E+00 4.157E-04 9.539E+00 1.666E-02 1.666E-02
 scprqt: <Vxc>= -6.7870707E-02 hartree

Simple mixing update:
  residual square of the potential :   5.62114555501243

 ITER STEP NUMBER     2
 vtorho : nnsclo_now=  2, note that nnsclo,dbl_nnsclo,istep=  0 0  2
-P-0000  leave_test : synchronization done...
 vtorho: loop on k-points and spins done in parallel
 Total charge density [el/Bohr^3]
,     Maximum=    2.6658E-01  at reduced coord.    0.0000    0.0000    0.0000
,     Minimum=    1.9075E-11  at reduced coord.    0.1000    0.5000    0.0000
,  Integrated=    2.0000E+00
 ETOT  2  -1.1036942403742    -2.334E-03 4.397E-07 3.248E-01 2.285E-02 3.951E-02
 scprqt: <Vxc>= -7.3920709E-02 hartree

 Pulay update with  1 previous iterations:
 mixing of old trial potential : alpha(m:m-4)=   1.12     -0.122

 ITER STEP NUMBER     3
 vtorho : nnsclo_now=  1, note that nnsclo,dbl_nnsclo,istep=  0 0  3
-P-0000  leave_test : synchronization done...
 vtorho: loop on k-points and spins done in parallel
 Total charge density [el/Bohr^3]
,     Maximum=    2.7007E-01  at reduced coord.    0.0000    0.0000    0.0000
,     Minimum=    4.7951E-11  at reduced coord.    0.1000    0.5000    0.0000
,  Integrated=    2.0000E+00
 ETOT  3  -1.1037171146644    -2.287E-05 4.664E-08 1.748E-02 3.078E-03 3.643E-02
 scprqt: <Vxc>= -7.3882507E-02 hartree

 Pulay update with  2 previous iterations:
 mixing of old trial potential : alpha(m:m-4)=   1.07     -0.308E-01 -0.365E-01

 ITER STEP NUMBER     4
 vtorho : nnsclo_now=  1, note that nnsclo,dbl_nnsclo,istep=  0 0  4
-P-0000  leave_test : synchronization done...
 vtorho: loop on k-points and spins done in parallel
 Total charge density [el/Bohr^3]
,     Maximum=    2.6896E-01  at reduced coord.    0.0000    0.0000    0.0000
,     Minimum=    1.0216E-09  at reduced coord.    0.1000    0.5000    0.0000
,  Integrated=    2.0000E+00
 ETOT  4  -1.1037223553536    -5.241E-06 7.084E-10 3.396E-04 1.079E-03 3.751E-02
 scprqt: <Vxc>= -7.4187644E-02 hartree

 Pulay update with  3 previous iterations:
 mixing of old trial potential : alpha(m:m-4)=   1.17     -0.163     -0.230E-01  0.118E-01

 ITER STEP NUMBER     5
 vtorho : nnsclo_now=  1, note that nnsclo,dbl_nnsclo,istep=  0 0  5
-P-0000  leave_test : synchronization done...
 vtorho: loop on k-points and spins done in parallel
 Total charge density [el/Bohr^3]
,     Maximum=    2.6908E-01  at reduced coord.    0.0000    0.0000    0.0000
,     Minimum=    8.1492E-10  at reduced coord.    0.1000    0.5000    0.0000
,  Integrated=    2.0000E+00
 ETOT  5  -1.1037224211708    -6.582E-08 6.604E-12 5.036E-06 1.133E-04 3.740E-02
 scprqt: <Vxc>= -7.4157021E-02 hartree

 Pulay update with  4 previous iterations:
 mixing of old trial potential : alpha(m:m-4)=   1.08     -0.799E-01  0.415E-03  0.754E-03 -0.342E-03

 ITER STEP NUMBER     6
 vtorho : nnsclo_now=  1, note that nnsclo,dbl_nnsclo,istep=  0 0  6
-P-0000  leave_test : synchronization done...
 vtorho: loop on k-points and spins done in parallel
 Total charge density [el/Bohr^3]
,     Maximum=    2.6907E-01  at reduced coord.    0.0000    0.0000    0.0000
,     Minimum=    8.1810E-10  at reduced coord.    0.1000    0.5000    0.0000
,  Integrated=    2.0000E+00
 ETOT  6  -1.1037224213426    -1.718E-10 9.768E-13 4.296E-07 8.615E-06 3.741E-02
 scprqt: <Vxc>= -7.4158038E-02 hartree

 At SCF step    6, etot is converged : 
  for the second time, diff in etot=  1.718E-10 < toldfe=  1.000E-06
forstrnps: loop on k-points and spins done in parallel
-P-0000  leave_test : synchronization done...
  strhar : before mpi_comm, harstr=  1.083577752922732E-003
  7.921684841197822E-004  1.262498809723475E-003  1.239623205729624E-020
  2.938959791703836E-021 -2.643462442566338E-021
  strhar : after mpi_comm, harstr=  1.344914869332611E-003
  1.584368681287340E-003  1.584368681287356E-003  1.275934758537058E-019
 -4.491734251516036E-022  7.446566237021838E-022
  strhar : ehart,ucvol=  0.718370064105817        1000.00000000000     

 Cartesian components of stress tensor (hartree/bohr^3)
  sigma(1 1)= -1.64353667E-05  sigma(3 2)=  0.00000000E+00
  sigma(2 2)=  3.60145915E-05  sigma(3 1)=  0.00000000E+00
  sigma(3 3)=  3.60145915E-05  sigma(2 1)=  0.00000000E+00
 
 symatm: atom number     1 is reached starting at atom
   1  2  2  1  2  1  1  2  1  2  2  1  2  1  1  2
 symatm: atom number     2 is reached starting at atom
   2  1  1  2  1  2  2  1  2  1  1  2  1  2  2  1
 ioarr: writing density data
ioarr: file name is tbase1_xo_DEN

 m_wffile.F90:327:COMMENT
   MPI/IO accessing FORTRAN file header: detected record mark length=4
ioarr: data written to disk file tbase1_xo_DEN
-P-0000  leave_test : synchronization done...
================================================================================

 ----iterations are completed or convergence reached----


 outwf: write wavefunction to file tbase1_xo_WFK, with accesswff 1
-P-0000  leave_test : synchronization done...

 m_wffile.F90:327:COMMENT
   MPI/IO accessing FORTRAN file header: detected record mark length=4
-P-0000  outwf with iomode:  1, cpu:     0.01, wall:     0.09

 === Gap info ===
  >>>> For spin  1
   Minimum optical gap =   9.5637 [eV], located at k-point      :   0.0000  0.0000  0.0000
   Fundamental gap     =   9.5637 [eV], Top of valence bands at :   0.0000  0.0000  0.0000
                                        Bottom of conduction at :   0.0000  0.0000  0.0000

 Cartesian components of stress tensor (hartree/bohr^3)
  sigma(1 1)= -1.64353667E-05  sigma(3 2)=  0.00000000E+00
  sigma(2 2)=  3.60145915E-05  sigma(3 1)=  0.00000000E+00
  sigma(3 3)=  3.60145915E-05  sigma(2 1)=  0.00000000E+00

-Cartesian components of stress tensor (GPa)         [Pressure= -5.4521E-01 GPa]
- sigma(1 1)= -4.83545100E-01  sigma(3 2)=  0.00000000E+00
- sigma(2 2)=  1.05958568E+00  sigma(3 1)=  0.00000000E+00
- sigma(3 3)=  1.05958568E+00  sigma(2 1)=  0.00000000E+00

== END DATASET(S) ==============================================================
================================================================================
  
 -outvars: echo values of variables after computation  --------
        accesswff           1
            acell      1.0000000000E+01  1.0000000000E+01  1.0000000000E+01 Bohr
              amu      1.00794000E+00
           diemac      2.00000000E+00
             ecut      1.00000000E+01 Hartree
           etotal     -1.1037224213E+00
            fcart     -3.7406017801E-02  0.0000000000E+00  0.0000000000E+00
                       3.7406017801E-02  0.0000000000E+00  0.0000000000E+00
           fftalg         401
      fft_opt_lob           2
           iprcch           6
           istwfk        2
           kptopt           0
P           mkmem           1
            natom           2
            nband           2
            ngfft          30      32      32
             nkpt           1
            npfft           4
            nstep          10
             nsym          16
           ntypat           1
              occ      2.000000  0.000000
        optforces           1
           ortalg          -2
        paral_kgb           1
          spgroup         123
           strten     -1.6435366659E-05  3.6014591473E-05  3.6014591473E-05
                       0.0000000000E+00  0.0000000000E+00  0.0000000000E+00
           symrel      1  0  0   0  1  0   0  0  1      -1  0  0   0 -1  0   0  0 -1
                      -1  0  0   0  1  0   0  0 -1       1  0  0   0 -1  0   0  0  1
                      -1  0  0   0 -1  0   0  0  1       1  0  0   0  1  0   0  0 -1
                       1  0  0   0 -1  0   0  0 -1      -1  0  0   0  1  0   0  0  1
                       1  0  0   0  0  1   0  1  0      -1  0  0   0  0 -1   0 -1  0
                      -1  0  0   0  0  1   0 -1  0       1  0  0   0  0 -1   0  1  0
                      -1  0  0   0  0 -1   0  1  0       1  0  0   0  0  1   0 -1  0
                       1  0  0   0  0 -1   0 -1  0      -1  0  0   0  0  1   0  1  0
           toldfe      1.00000000E-06 Hartree
            typat      1  1
         wfoptalg          14
           xangst     -3.7042404601E-01  0.0000000000E+00  0.0000000000E+00
                       3.7042404601E-01  0.0000000000E+00  0.0000000000E+00
            xcart     -7.0000000000E-01  0.0000000000E+00  0.0000000000E+00
                       7.0000000000E-01  0.0000000000E+00  0.0000000000E+00
             xred     -7.0000000000E-02  0.0000000000E+00  0.0000000000E+00
                       7.0000000000E-02  0.0000000000E+00  0.0000000000E+00
            znucl        1.00000

================================================================================
  

================================================================================

 Suggested references for the acknowledgment of ABINIT usage.

 The users of ABINIT have little formal obligations with respect to the ABINIT group
 (those specified in the GNU General Public License, http://www.gnu.org/copyleft/gpl.txt).
 However, it is common practice in the scientific literature,
 to acknowledge the efforts of people that have made the research possible.
 In this spirit, please find below suggested citations of work written by ABINIT developers,
 corresponding to implementations inside of ABINIT that you have used in the present run.
 Note also that it will be of great value to readers of publications presenting these results,
 to read papers enabling them to understand the theoretical formalism and details
 of the ABINIT implementation.
 For information on why they are suggested, see also http://www.abinit.org/about/?text=acknowledgments.

 [1] Large scale ab initio calculations based on three levels of parallelization
 F. Bottin, S. Leroux, A. Knyazev, G. Zerah, Comput. Mat. Science 42, 329, (2008).
 Comment : in case paral_kgb is non-zero. Strong suggestion to cite this paper in your publications.
 This paper is also available at http://www.arxiv.org/abs/0707.3405

 [2] ABINIT : First-principles approach of materials and nanosystem properties.
 X. Gonze, B. Amadon, P.-M. Anglade, J.-M. Beuken, F. Bottin, P. Boulanger, F. Bruneval,
 D. Caliste, R. Caracas, M. Cote, T. Deutsch, L. Genovese, Ph. Ghosez, M. Giantomassi
 S. Goedecker, D.R. Hamann, P. Hermet, F. Jollet, G. Jomard, S. Leroux, M. Mancini, S. Mazevet,
 M.J.T. Oliveira, G. Onida, Y. Pouillon, T. Rangel, G.-M. Rignanese, D. Sangalli, R. Shaltaf,
 M. Torrent, M.J. Verstraete, G. Zerah, J.W. Zwanziger
 Computer Phys. Comm. 180, 2582-2615 (2009).
 Comment : the third generic paper describing the ABINIT project.
 Note that a version of this paper, that is not formatted for Computer Phys. Comm. 
 is available at http://www.abinit.org/about/ABINIT_CPC_v10.pdf .
 The licence allows the authors to put it on the Web.

 [3] A brief introduction to the ABINIT software package.
 X. Gonze, G.-M. Rignanese, M. Verstraete, J.-M. Beuken, Y. Pouillon, R. Caracas, F. Jollet,
 M. Torrent, G. Zerah, M. Mikami, Ph. Ghosez, M. Veithen, J.-Y. Raty, V. Olevano, F. Bruneval,
 L. Reining, R. Godby, G. Onida, D.R. Hamann, and D.C. Allan.
 Z. Kristallogr. 220, 558-562 (2005).
 Comment : the second generic paper describing the ABINIT project. Note that this paper
 should be cited especially if you are using the GW part of ABINIT, as several authors
 of this part are not in the list of authors of the first or third paper.
 The .pdf of the latter paper is available at http://www.abinit.org/about/zfk_0505-06_558-562.pdf.
 Note that it should not redistributed (Copyright by Oldenburg Wissenshaftverlag,
 the licence allows the authors to put it on the Web).


 And optionally :

 [4] First-principles computation of material properties : the ABINIT software project. 
 X. Gonze, J.-M. Beuken, R. Caracas, F. Detraux, M. Fuchs, G.-M. Rignanese, L. Sindic,
 M. Verstraete, G. Zerah, F. Jollet, M. Torrent, A. Roy, M. Mikami, Ph. Ghosez, J.-Y. Raty, D.C. Allan.
 Computational Materials Science 25, 478-492 (2002). http://dx.doi.org/10.1016/S0927-0256(02)00325-7
 Comment : the original paper describing the ABINIT project.

 [5] Fast radix 2, 3, 4 and 5 kernels for Fast Fourier Transformations
 on computers with overlapping multiply-add instructions.
 S. Goedecker, SIAM J. on Scientific Computing 18, 1605 (1997).
 Proc.   0 individual time (sec): cpu=          0.3  wall=          1.5

 Calculation completed.
.Delivered    1 WARNINGs and   8 COMMENTs to log file.
 
TACC: Shutdown complete. Exiting.
