
.Version 7.2.2 of ABINIT 
.(MPI version, prepared for a x86_64_linux_intel13.1 computer) 

.Copyright (C) 1998-2013 ABINIT group . 
 ABINIT comes with ABSOLUTELY NO WARRANTY.
 It is free software, and you are welcome to redistribute it
 under certain conditions (GNU General Public License,
 see ~abinit/COPYING or http://www.gnu.org/copyleft/gpl.txt).

 ABINIT is a project of the Universite Catholique de Louvain,
 Corning Inc. and other collaborators, see ~abinit/doc/developers/contributors.txt .
 Please read ~abinit/doc/users/acknowledgments.html for suggested
 acknowledgments of the ABINIT effort.
 For more information, see http://www.abinit.org .

.Starting date : Fri  9 Aug 2013.
- ( at 11h06 )
  
- input  file    -> tbase1_1.in
- output file    -> tbase1_x.out
- root for input  files -> tbase1_xi
- root for output files -> tbase1_xo


 Symmetries : space group P4/m m m (#123); Bravais tP (primitive tetrag.)
================================================================================
 Values of the parameters that define the memory need of the present run
   intxc =         0  ionmov =         0    iscf =         7 xclevel =         1
  lmnmax =         1   lnmax =         1   mband =         2  mffmem =         1
P  mgfft =        32   mkmem =         1 mpssoang=         1     mpw =       190
  mqgrid =      3001   natom =         2    nfft =      7680    nkpt =         1
  nloalg =         4  nspden =         1 nspinor =         1  nsppol =         1
    nsym =        16  n1xccc =         0  ntypat =         1  occopt =         1
================================================================================
P This job should need less than                       3.587 Mbytes of memory.
  Rough estimation (10% accuracy) of disk space for files :
_ WF disk file :      0.025 Mbytes ; DEN or POT disk file :      0.061 Mbytes.
================================================================================

--------------------------------------------------------------------------------
------------- Echo of variables that govern the present computation ------------
--------------------------------------------------------------------------------
-
- outvars: echo of selected default values                                      
-   accesswff0 =  0 , fftalg0 =312 , wfoptalg0 =  0
-
- outvars: echo of global parameters not present in the input file              
-  max_nthreads =    0
-
 -outvars: echo values of preprocessed input variables --------
        accesswff           1
            acell      1.0000000000E+01  1.0000000000E+01  1.0000000000E+01 Bohr
              amu      1.00794000E+00
           diemac      2.00000000E+00
             ecut      1.00000000E+01 Hartree
           fftalg         401
      fft_opt_lob           2
           iprcch           6
           istwfk        2
           kptopt           0
P           mkmem           1
            natom           2
            nband           2
            ngfft          30      32      32
             nkpt           1
            npfft           4
            nstep          10
             nsym          16
           ntypat           1
              occ      2.000000  0.000000
        optforces           1
           ortalg          -2
        paral_kgb           1
          spgroup         123
           symrel      1  0  0   0  1  0   0  0  1      -1  0  0   0 -1  0   0  0 -1
                      -1  0  0   0  1  0   0  0 -1       1  0  0   0 -1  0   0  0  1
                      -1  0  0   0 -1  0   0  0  1       1  0  0   0  1  0   0  0 -1
                       1  0  0   0 -1  0   0  0 -1      -1  0  0   0  1  0   0  0  1
                       1  0  0   0  0  1   0  1  0      -1  0  0   0  0 -1   0 -1  0
                      -1  0  0   0  0  1   0 -1  0       1  0  0   0  0 -1   0  1  0
                      -1  0  0   0  0 -1   0  1  0       1  0  0   0  0  1   0 -1  0
                       1  0  0   0  0 -1   0 -1  0      -1  0  0   0  0  1   0  1  0
           toldfe      1.00000000E-06 Hartree
            typat      1  1
         wfoptalg          14
           xangst     -3.7042404601E-01  0.0000000000E+00  0.0000000000E+00
                       3.7042404601E-01  0.0000000000E+00  0.0000000000E+00
            xcart     -7.0000000000E-01  0.0000000000E+00  0.0000000000E+00
                       7.0000000000E-01  0.0000000000E+00  0.0000000000E+00
             xred     -7.0000000000E-02  0.0000000000E+00  0.0000000000E+00
                       7.0000000000E-02  0.0000000000E+00  0.0000000000E+00
            znucl        1.00000

================================================================================

 chkinp: Checking input parameters for consistency.

================================================================================
== DATASET  1 ==================================================================
-   nproc =    4

 Exchange-correlation functional for the present dataset will be:
  LDA: new Teter (4/93) with spin-polarized option - ixc=1
 Citation for XC functional:
  S. Goedecker, M. Teter, J. Huetter, PRB 54, 1703 (1996)
 
 Real(R)+Recip(G) space primitive vectors, cartesian coordinates (Bohr,Bohr^-1):
 R(1)= 10.0000000  0.0000000  0.0000000  G(1)=  0.1000000  0.0000000  0.0000000
 R(2)=  0.0000000 10.0000000  0.0000000  G(2)=  0.0000000  0.1000000  0.0000000
 R(3)=  0.0000000  0.0000000 10.0000000  G(3)=  0.0000000  0.0000000  0.1000000
 Unit cell volume ucvol=  1.0000000E+03 bohr^3
 Angles (23,13,12)=  9.00000000E+01  9.00000000E+01  9.00000000E+01 degrees

 getcut: wavevector=  0.0000  0.0000  0.0000  ngfft=  30  32  32
         ecut(hartree)=     10.000   => boxcut(ratio)=   2.10744

--- Pseudopotential description ------------------------------------------------
- pspini: atom type   1  psp file is /work/02288/mgs763/abinit-7.2.2_src/tests/Psps_for_tests/01h.pspgth
- pspatm: opening atomic psp file    /work/02288/mgs763/abinit-7.2.2_src/tests/Psps_for_tests/01h.pspgth
- Goedecker-Teter-Hutter  Wed May  8 14:27:44 EDT 1996
-  1.00000   1.00000    960508                znucl, zion, pspdat
    2    1    0    0      2001   0.00000      pspcod,pspxc,lmax,lloc,mmax,r2well
 rloc=   0.2000000
  cc1=  -4.0663326; cc2=   0.6778322; cc3=   0.0000000; cc4=   0.0000000
  rrs=   0.0000000; h1s=   0.0000000; h2s=   0.0000000
  rrp=   0.0000000; h1p=   0.0000000
-  Local part computed in reciprocal space.

 pspatm : COMMENT -
  the projectors are not normalized,
  so that the KB energies are not consistent with 
  definition in PRB44, 8503 (1991). 
  However, this does not influence the results obtained hereafter.
 pspatm: epsatm=   -0.00480358
         --- l  ekb(1:nproj) -->
 pspatm: atomic psp has been read  and splines computed

  -1.92143215E-02                                ecore*ucvol(ha*bohr**3)
--------------------------------------------------------------------------------

P newkpt: treating      2 bands with npw=     190 for ikpt=   1 by node    0
 
_setup2: Arith. and geom. avg. npw (full set) are     379.000     379.000

================================================================================

     iter   Etot(hartree)      deltaE(h)  residm     vres2    diffor    maxfor
 ETOT  1  -1.1013607079059    -1.101E+00 4.157E-04 9.539E+00 1.666E-02 1.666E-02
 ETOT  2  -1.1036942403742    -2.334E-03 4.397E-07 3.248E-01 2.285E-02 3.951E-02
 ETOT  3  -1.1037171146644    -2.287E-05 4.664E-08 1.748E-02 3.078E-03 3.643E-02
 ETOT  4  -1.1037223553536    -5.241E-06 7.084E-10 3.396E-04 1.079E-03 3.751E-02
 ETOT  5  -1.1037224211708    -6.582E-08 6.604E-12 5.036E-06 1.133E-04 3.740E-02
 ETOT  6  -1.1037224213426    -1.718E-10 9.768E-13 4.296E-07 8.615E-06 3.741E-02

 At SCF step    6, etot is converged : 
  for the second time, diff in etot=  1.718E-10 < toldfe=  1.000E-06

 Cartesian components of stress tensor (hartree/bohr^3)
  sigma(1 1)= -1.64353667E-05  sigma(3 2)=  0.00000000E+00
  sigma(2 2)=  3.60145915E-05  sigma(3 1)=  0.00000000E+00
  sigma(3 3)=  3.60145915E-05  sigma(2 1)=  0.00000000E+00
 
================================================================================

 ----iterations are completed or convergence reached----

 Mean square residual over all n,k,spin=   4.8912E-13; max=  9.7682E-13
   0.0000  0.0000  0.0000    1  9.76819E-13 kpt; spin; max resid(k); each band:
  1.43E-15 9.77E-13
 reduced coordinates (array xred) for    2 atoms
      -0.070000000000      0.000000000000      0.000000000000
       0.070000000000      0.000000000000      0.000000000000
 rms dE/dt=  2.1596E-01; max dE/dt=  3.7406E-01; dE/dt below (all hartree)
    1       0.374060178008      0.000000000000      0.000000000000
    2      -0.374060178008      0.000000000000      0.000000000000
 
 cartesian coordinates (angstrom) at end:
    1     -0.37042404601300     0.00000000000000     0.00000000000000
    2      0.37042404601300     0.00000000000000     0.00000000000000

 cartesian forces (hartree/bohr) at end:
    1     -0.03740601780079     0.00000000000000     0.00000000000000
    2      0.03740601780079     0.00000000000000     0.00000000000000
 frms,max,avg= 2.1596374E-02 3.7406018E-02   0.000E+00  0.000E+00  0.000E+00 h/b

 cartesian forces (eV/Angstrom) at end:
    1     -1.92349461112168     0.00000000000000     0.00000000000000
    2      1.92349461112168     0.00000000000000     0.00000000000000
 frms,max,avg= 1.1105301E+00 1.9234946E+00   0.000E+00  0.000E+00  0.000E+00 e/A
 length scales= 10.000000000000 10.000000000000 10.000000000000 bohr
              =  5.291772085900  5.291772085900  5.291772085900 angstroms
 prteigrs : about to open file tbase1_xo_EIG
 Fermi (or HOMO) energy (hartree) =  -0.36525   Average Vxc (hartree)=  -0.07416
 Eigenvalues (hartree) for nkpt=   1  k points:
 kpt#   1, nband=  2, wtk=  1.00000, kpt=  0.0000  0.0000  0.0000 (reduced coord)
  -0.36525  -0.01379
 Total charge density [el/Bohr^3]
,     Maximum=    2.6907E-01  at reduced coord.    0.0000    0.0000    0.0000
,Next maximum=    2.5965E-01  at reduced coord.    0.9667    0.0000    0.0000
,     Minimum=    8.1810E-10  at reduced coord.    0.1000    0.5000    0.0000
,Next minimum=    8.1810E-10  at reduced coord.    0.9000    0.5000    0.0000
,  Integrated=    2.0000E+00

--------------------------------------------------------------------------------
 Components of total free energy (in Hartree) :

    Kinetic energy  =  1.00347216155368E+00
    Hartree energy  =  7.18370064105817E-01
    XC energy       = -6.34653169255885E-01
    Ewald energy    =  1.51051118525613E-01
    PspCore energy  = -1.92143215271889E-05
    Loc. psp. energy= -2.34194338195025E+00
    NL   psp  energy=  0.00000000000000E+00
    >>>>>>>>> Etotal= -1.10372242134255E+00

 Other information on the energy :
    Total energy(eV)= -3.00338144820408E+01 ; Band energy (Ha)=  -7.3049604208E-01
--------------------------------------------------------------------------------

 Cartesian components of stress tensor (hartree/bohr^3)
  sigma(1 1)= -1.64353667E-05  sigma(3 2)=  0.00000000E+00
  sigma(2 2)=  3.60145915E-05  sigma(3 1)=  0.00000000E+00
  sigma(3 3)=  3.60145915E-05  sigma(2 1)=  0.00000000E+00

-Cartesian components of stress tensor (GPa)         [Pressure= -5.4521E-01 GPa]
- sigma(1 1)= -4.83545100E-01  sigma(3 2)=  0.00000000E+00
- sigma(2 2)=  1.05958568E+00  sigma(3 1)=  0.00000000E+00
- sigma(3 3)=  1.05958568E+00  sigma(2 1)=  0.00000000E+00

== END DATASET(S) ==============================================================
================================================================================
  
 -outvars: echo values of variables after computation  --------
        accesswff           1
            acell      1.0000000000E+01  1.0000000000E+01  1.0000000000E+01 Bohr
              amu      1.00794000E+00
           diemac      2.00000000E+00
             ecut      1.00000000E+01 Hartree
           etotal     -1.1037224213E+00
            fcart     -3.7406017801E-02  0.0000000000E+00  0.0000000000E+00
                       3.7406017801E-02  0.0000000000E+00  0.0000000000E+00
           fftalg         401
      fft_opt_lob           2
           iprcch           6
           istwfk        2
           kptopt           0
P           mkmem           1
            natom           2
            nband           2
            ngfft          30      32      32
             nkpt           1
            npfft           4
            nstep          10
             nsym          16
           ntypat           1
              occ      2.000000  0.000000
        optforces           1
           ortalg          -2
        paral_kgb           1
          spgroup         123
           strten     -1.6435366659E-05  3.6014591473E-05  3.6014591473E-05
                       0.0000000000E+00  0.0000000000E+00  0.0000000000E+00
           symrel      1  0  0   0  1  0   0  0  1      -1  0  0   0 -1  0   0  0 -1
                      -1  0  0   0  1  0   0  0 -1       1  0  0   0 -1  0   0  0  1
                      -1  0  0   0 -1  0   0  0  1       1  0  0   0  1  0   0  0 -1
                       1  0  0   0 -1  0   0  0 -1      -1  0  0   0  1  0   0  0  1
                       1  0  0   0  0  1   0  1  0      -1  0  0   0  0 -1   0 -1  0
                      -1  0  0   0  0  1   0 -1  0       1  0  0   0  0 -1   0  1  0
                      -1  0  0   0  0 -1   0  1  0       1  0  0   0  0  1   0 -1  0
                       1  0  0   0  0 -1   0 -1  0      -1  0  0   0  0  1   0  1  0
           toldfe      1.00000000E-06 Hartree
            typat      1  1
         wfoptalg          14
           xangst     -3.7042404601E-01  0.0000000000E+00  0.0000000000E+00
                       3.7042404601E-01  0.0000000000E+00  0.0000000000E+00
            xcart     -7.0000000000E-01  0.0000000000E+00  0.0000000000E+00
                       7.0000000000E-01  0.0000000000E+00  0.0000000000E+00
             xred     -7.0000000000E-02  0.0000000000E+00  0.0000000000E+00
                       7.0000000000E-02  0.0000000000E+00  0.0000000000E+00
            znucl        1.00000

================================================================================


- Timing analysis has been suppressed with timopt=0



================================================================================

 Suggested references for the acknowledgment of ABINIT usage.

 The users of ABINIT have little formal obligations with respect to the ABINIT group
 (those specified in the GNU General Public License, http://www.gnu.org/copyleft/gpl.txt).
 However, it is common practice in the scientific literature,
 to acknowledge the efforts of people that have made the research possible.
 In this spirit, please find below suggested citations of work written by ABINIT developers,
 corresponding to implementations inside of ABINIT that you have used in the present run.
 Note also that it will be of great value to readers of publications presenting these results,
 to read papers enabling them to understand the theoretical formalism and details
 of the ABINIT implementation.
 For information on why they are suggested, see also http://www.abinit.org/about/?text=acknowledgments.

 [1] Large scale ab initio calculations based on three levels of parallelization
 F. Bottin, S. Leroux, A. Knyazev, G. Zerah, Comput. Mat. Science 42, 329, (2008).
 Comment : in case paral_kgb is non-zero. Strong suggestion to cite this paper in your publications.
 This paper is also available at http://www.arxiv.org/abs/0707.3405

 [2] ABINIT : First-principles approach of materials and nanosystem properties.
 X. Gonze, B. Amadon, P.-M. Anglade, J.-M. Beuken, F. Bottin, P. Boulanger, F. Bruneval,
 D. Caliste, R. Caracas, M. Cote, T. Deutsch, L. Genovese, Ph. Ghosez, M. Giantomassi
 S. Goedecker, D.R. Hamann, P. Hermet, F. Jollet, G. Jomard, S. Leroux, M. Mancini, S. Mazevet,
 M.J.T. Oliveira, G. Onida, Y. Pouillon, T. Rangel, G.-M. Rignanese, D. Sangalli, R. Shaltaf,
 M. Torrent, M.J. Verstraete, G. Zerah, J.W. Zwanziger
 Computer Phys. Comm. 180, 2582-2615 (2009).
 Comment : the third generic paper describing the ABINIT project.
 Note that a version of this paper, that is not formatted for Computer Phys. Comm. 
 is available at http://www.abinit.org/about/ABINIT_CPC_v10.pdf .
 The licence allows the authors to put it on the Web.

 [3] A brief introduction to the ABINIT software package.
 X. Gonze, G.-M. Rignanese, M. Verstraete, J.-M. Beuken, Y. Pouillon, R. Caracas, F. Jollet,
 M. Torrent, G. Zerah, M. Mikami, Ph. Ghosez, M. Veithen, J.-Y. Raty, V. Olevano, F. Bruneval,
 L. Reining, R. Godby, G. Onida, D.R. Hamann, and D.C. Allan.
 Z. Kristallogr. 220, 558-562 (2005).
 Comment : the second generic paper describing the ABINIT project. Note that this paper
 should be cited especially if you are using the GW part of ABINIT, as several authors
 of this part are not in the list of authors of the first or third paper.
 The .pdf of the latter paper is available at http://www.abinit.org/about/zfk_0505-06_558-562.pdf.
 Note that it should not redistributed (Copyright by Oldenburg Wissenshaftverlag,
 the licence allows the authors to put it on the Web).


 And optionally :

 [4] First-principles computation of material properties : the ABINIT software project. 
 X. Gonze, J.-M. Beuken, R. Caracas, F. Detraux, M. Fuchs, G.-M. Rignanese, L. Sindic,
 M. Verstraete, G. Zerah, F. Jollet, M. Torrent, A. Roy, M. Mikami, Ph. Ghosez, J.-Y. Raty, D.C. Allan.
 Computational Materials Science 25, 478-492 (2002). http://dx.doi.org/10.1016/S0927-0256(02)00325-7
 Comment : the original paper describing the ABINIT project.

 [5] Fast radix 2, 3, 4 and 5 kernels for Fast Fourier Transformations
 on computers with overlapping multiply-add instructions.
 S. Goedecker, SIAM J. on Scientific Computing 18, 1605 (1997).
-
- Proc.   0 individual time (sec): cpu=          0.3  wall=          1.5

================================================================================

 Calculation completed.
.Delivered    1 WARNINGs and   8 COMMENTs to log file.
+Overall time at end (sec) : cpu=          5.6  wall=         10.2
