
.Version 7.2.2 of ABINIT 
.(MPI version, prepared for a x86_64_linux_intel13.1 computer) 

.Copyright (C) 1998-2013 ABINIT group . 
 ABINIT comes with ABSOLUTELY NO WARRANTY.
 It is free software, and you are welcome to redistribute it
 under certain conditions (GNU General Public License,
 see ~abinit/COPYING or http://www.gnu.org/copyleft/gpl.txt).

 ABINIT is a project of the Universite Catholique de Louvain,
 Corning Inc. and other collaborators, see ~abinit/doc/developers/contributors.txt .
 Please read ~abinit/doc/users/acknowledgments.html for suggested
 acknowledgments of the ABINIT effort.
 For more information, see http://www.abinit.org .

.Starting date : Thu 29 Aug 2013.
- ( at 18h22 )
  
- input  file    -> BTO_structopt.in
- output file    -> BTO_structopt.out
- root for input  files -> in_structopt
- root for output files -> out_structopt


 DATASET    1 : space group P4 m m (# 99); Bravais tP (primitive tetrag.)
================================================================================
 Values of the parameters that define the memory need for DATASET  1.
   intxc =         0  ionmov =         2    iscf =         7 xclevel =         1
  lmnmax =         2   lnmax =         2   mband =        16  mffmem =         1
P  mgfft =        48   mkmem =         5 mpssoang=         3     mpw =      1077
  mqgrid =      3001   natom =         5    nfft =     19200    nkpt =        40
  nloalg =         4  nspden =         1 nspinor =         1  nsppol =         1
    nsym =         8  n1xccc =      2501  ntypat =         3  occopt =         1
================================================================================
P This job should need less than                      10.596 Mbytes of memory.
  Rough estimation (10% accuracy) of disk space for files :
_ WF disk file :     42.072 Mbytes ; DEN or POT disk file :      0.148 Mbytes.
================================================================================

--------------------------------------------------------------------------------
------------- Echo of variables that govern the present computation ------------
--------------------------------------------------------------------------------
-
- outvars: echo of selected default values                                      
-   accesswff0 =  0 , fftalg0 =312 , wfoptalg0 =  0
-
- outvars: echo of global parameters not present in the input file              
-  max_nthreads =    1
-
 -outvars: echo values of preprocessed input variables --------
        accesswff           1
            acell      7.4833154862E+00  7.4833154862E+00  7.5589045315E+00 Bohr
              amu      1.37327000E+02  4.78800000E+01  1.59994000E+01
           diemac      4.00000000E+03
             ecut      3.50000000E+01 Hartree
           fftalg         401
      fft_opt_lob           2
           iatfix        1
           ionmov           2
           iprcch           6
           jdtset        1
              kpt      6.25000000E-02  6.25000000E-02  6.25000000E-02
                       1.87500000E-01  6.25000000E-02  6.25000000E-02
                       3.12500000E-01  6.25000000E-02  6.25000000E-02
                       4.37500000E-01  6.25000000E-02  6.25000000E-02
                       1.87500000E-01  1.87500000E-01  6.25000000E-02
                       3.12500000E-01  1.87500000E-01  6.25000000E-02
                       4.37500000E-01  1.87500000E-01  6.25000000E-02
                       3.12500000E-01  3.12500000E-01  6.25000000E-02
                       4.37500000E-01  3.12500000E-01  6.25000000E-02
                       4.37500000E-01  4.37500000E-01  6.25000000E-02
                       6.25000000E-02  6.25000000E-02  1.87500000E-01
                       1.87500000E-01  6.25000000E-02  1.87500000E-01
                       3.12500000E-01  6.25000000E-02  1.87500000E-01
                       4.37500000E-01  6.25000000E-02  1.87500000E-01
                       1.87500000E-01  1.87500000E-01  1.87500000E-01
                       3.12500000E-01  1.87500000E-01  1.87500000E-01
                       4.37500000E-01  1.87500000E-01  1.87500000E-01
                       3.12500000E-01  3.12500000E-01  1.87500000E-01
                       4.37500000E-01  3.12500000E-01  1.87500000E-01
                       4.37500000E-01  4.37500000E-01  1.87500000E-01
                       6.25000000E-02  6.25000000E-02  3.12500000E-01
                       1.87500000E-01  6.25000000E-02  3.12500000E-01
                       3.12500000E-01  6.25000000E-02  3.12500000E-01
                       4.37500000E-01  6.25000000E-02  3.12500000E-01
                       1.87500000E-01  1.87500000E-01  3.12500000E-01
                       3.12500000E-01  1.87500000E-01  3.12500000E-01
                       4.37500000E-01  1.87500000E-01  3.12500000E-01
                       3.12500000E-01  3.12500000E-01  3.12500000E-01
                       4.37500000E-01  3.12500000E-01  3.12500000E-01
                       4.37500000E-01  4.37500000E-01  3.12500000E-01
                       6.25000000E-02  6.25000000E-02  4.37500000E-01
                       1.87500000E-01  6.25000000E-02  4.37500000E-01
                       3.12500000E-01  6.25000000E-02  4.37500000E-01
                       4.37500000E-01  6.25000000E-02  4.37500000E-01
                       1.87500000E-01  1.87500000E-01  4.37500000E-01
                       3.12500000E-01  1.87500000E-01  4.37500000E-01
                       4.37500000E-01  1.87500000E-01  4.37500000E-01
                       3.12500000E-01  3.12500000E-01  4.37500000E-01
                       4.37500000E-01  3.12500000E-01  4.37500000E-01
                       4.37500000E-01  4.37500000E-01  4.37500000E-01
         kptrlatt        8    0    0      0    8    0      0    0    8
          kptrlen      5.98665239E+01
P           mkmem           5
           natfix           1
            natom           5
            nband          16
           ndtset           1
            ngfft          40      40      48
             nkpt          40
            npfft           4
-           npkpt           8
            nstep         100
             nsym           8
            ntime          40
           ntypat           3
              occ      2.000000  2.000000  2.000000  2.000000  2.000000  2.000000
                       2.000000  2.000000  2.000000  2.000000  2.000000  2.000000
                       2.000000  2.000000  2.000000  0.000000
           ortalg          -2
        paral_kgb           1
           prteig           0
           shiftk      5.00000000E-01  5.00000000E-01  5.00000000E-01
          spgroup          99
           symrel      1  0  0   0  1  0   0  0  1       1  0  0   0 -1  0   0  0  1
                      -1  0  0   0 -1  0   0  0  1      -1  0  0   0  1  0   0  0  1
                       0  1  0   1  0  0   0  0  1       0  1  0  -1  0  0   0  0  1
                       0 -1  0  -1  0  0   0  0  1       0 -1  0   1  0  0   0  0  1
           toldfe      7.00000000E-08 Hartree
           tolmxf      1.00000000E-04
            typat      1  2  3  3  3
         wfoptalg          14
              wtk        0.01563    0.03125    0.03125    0.03125    0.01563    0.03125
                         0.03125    0.01563    0.03125    0.01563    0.01563    0.03125
                         0.03125    0.03125    0.01563    0.03125    0.03125    0.01563
                         0.03125    0.01563    0.01563    0.03125    0.03125    0.03125
                         0.01563    0.03125    0.03125    0.01563    0.03125    0.01563
                         0.01563    0.03125    0.03125    0.03125    0.01563    0.03125
                         0.03125    0.01563    0.03125    0.01563
           xangst      0.0000000000E+00  0.0000000000E+00  0.0000000000E+00
                       1.9800000000E+00  1.9800000000E+00  2.0600000000E+00
                       0.0000000000E+00  1.9800000000E+00  1.9400000000E+00
                       1.9800000000E+00  0.0000000000E+00  1.9400000000E+00
                       1.9800000000E+00  1.9800000000E+00 -1.2000000000E-01
            xcart      0.0000000000E+00  0.0000000000E+00  0.0000000000E+00
                       3.7416577431E+00  3.7416577431E+00  3.8928358337E+00
                       0.0000000000E+00  3.7416577431E+00  3.6660686978E+00
                       3.7416577431E+00  0.0000000000E+00  3.6660686978E+00
                       3.7416577431E+00  3.7416577431E+00 -2.2676713595E-01
             xred      0.0000000000E+00  0.0000000000E+00  0.0000000000E+00
                       5.0000000000E-01  5.0000000000E-01  5.1500000000E-01
                       0.0000000000E+00  5.0000000000E-01  4.8500000000E-01
                       5.0000000000E-01  0.0000000000E+00  4.8500000000E-01
                       5.0000000000E-01  5.0000000000E-01 -3.0000000000E-02
            znucl       56.00000   22.00000    8.00000

================================================================================

 chkinp: Checking input parameters for consistency, jdtset=   1.

================================================================================
== DATASET  1 ==================================================================
-   nproc =   32

 Exchange-correlation functional for the present dataset will be:
  LDA: new Teter (4/93) with spin-polarized option - ixc=1
 Citation for XC functional:
  S. Goedecker, M. Teter, J. Huetter, PRB 54, 1703 (1996)
 
 Real(R)+Recip(G) space primitive vectors, cartesian coordinates (Bohr,Bohr^-1):
 R(1)=  7.4833155  0.0000000  0.0000000  G(1)=  0.1336306  0.0000000  0.0000000
 R(2)=  0.0000000  7.4833155  0.0000000  G(2)=  0.0000000  0.1336306  0.0000000
 R(3)=  0.0000000  0.0000000  7.5589045  G(3)=  0.0000000  0.0000000  0.1322943
 Unit cell volume ucvol=  4.2329873E+02 bohr^3
 Angles (23,13,12)=  9.00000000E+01  9.00000000E+01  9.00000000E+01 degrees

 getcut: wavevector=  0.0000  0.0000  0.0000  ngfft=  40  40  48
         ecut(hartree)=     35.000   => boxcut(ratio)=   2.00709

--- Pseudopotential description ------------------------------------------------
- pspini: atom type   1  psp file is ../psps/56ba_LDA_TM.pspnc
- pspatm: opening atomic psp file    ../psps/56ba_LDA_TM.pspnc
-  Troullier-Martins psp for element  Ba        Thu Oct 27 17:45:27 EDT 1994
- 56.00000   8.00000    940714                znucl, zion, pspdat
    1    1    2    0      2001   0.00000      pspcod,pspxc,lmax,lloc,mmax,r2well
    0   3.136   6.531    0   3.3606525        l,e99.0,e99.9,nproj,rcpsp
   0.00000000   0.00000000   0.00000000   0.00000000     rms, ekb1, ekb2, epsatm
    1   3.684   8.871    1   2.4896211        l,e99.0,e99.9,nproj,rcpsp
   0.00000000   0.00000000   0.00000000   0.00000000     rms, ekb1, ekb2, epsatm
    2   4.356   5.823    1   2.7860712        l,e99.0,e99.9,nproj,rcpsp
   0.00000000   0.00000000   0.00000000   0.00000000     rms, ekb1, ekb2, epsatm
    2.29351246205421    0.45434617287240    4.78340519141650   rchrg,fchrg,qchrg
 pspatm: epsatm=  174.17887550
         --- l  ekb(1:nproj) -->
             1   -2.337834
             2   -1.872976
 pspatm: atomic psp has been read  and splines computed

- pspini: atom type   2  psp file is ../psps/22ti_LDA_TM.pspnc
- pspatm: opening atomic psp file    ../psps/22ti_LDA_TM.pspnc
-  Troullier-Martins psp for element  Ti        Thu Oct 27 17:33:40 EDT 1994
- 22.00000   4.00000    940714                znucl, zion, pspdat
    1    1    2    0      2001   0.00000      pspcod,pspxc,lmax,lloc,mmax,r2well
    0   5.166   8.509    0   2.4203472        l,e99.0,e99.9,nproj,rcpsp
   0.00000000   0.00000000   0.00000000   0.00000000     rms, ekb1, ekb2, epsatm
    1   2.285   3.944    1   2.9934301        l,e99.0,e99.9,nproj,rcpsp
   0.00000000   0.00000000   0.00000000   0.00000000     rms, ekb1, ekb2, epsatm
    2  20.947  27.069    1   1.9326638        l,e99.0,e99.9,nproj,rcpsp
   0.00000000   0.00000000   0.00000000   0.00000000     rms, ekb1, ekb2, epsatm
    2.82741504495369    0.09256629068341    1.82586447305099   rchrg,fchrg,qchrg
 pspatm: epsatm=   66.67453488
         --- l  ekb(1:nproj) -->
             1    0.915537
             2   -8.015692
 pspatm: atomic psp has been read  and splines computed

- pspini: atom type   3  psp file is ../psps/8o_LDA_TM.pspnc
- pspatm: opening atomic psp file    ../psps/8o_LDA_TM.pspnc
-  Troullier-Martins psp for element  O         Thu Oct 27 17:29:57 EDT 1994
-  8.00000   6.00000    940714                znucl, zion, pspdat
    1    1    1    1      2001   0.00000      pspcod,pspxc,lmax,lloc,mmax,r2well
    0   5.480  16.893    1   1.4482335        l,e99.0,e99.9,nproj,rcpsp
   0.00000000   0.00000000   0.00000000   0.00000000     rms, ekb1, ekb2, epsatm
    1  20.911  28.075    0   1.4482335        l,e99.0,e99.9,nproj,rcpsp
   0.00000000   0.00000000   0.00000000   0.00000000     rms, ekb1, ekb2, epsatm
    0.56990156784787    3.95561236318184    0.63894027514378   rchrg,fchrg,qchrg
 pspatm: epsatm=    1.57752239
         --- l  ekb(1:nproj) -->
             0    5.670783
 pspatm: atomic psp has been read  and splines computed

   7.36757933E+03                                ecore*ucvol(ha*bohr**3)
--------------------------------------------------------------------------------

P newkpt: treating     16 bands with npw=    1066 for ikpt=   1 by node    0
P newkpt: treating     16 bands with npw=    1067 for ikpt=   2 by node    0
P newkpt: treating     16 bands with npw=    1065 for ikpt=   3 by node    0
P newkpt: treating     16 bands with npw=    1073 for ikpt=   4 by node    0
P newkpt: treating     16 bands with npw=    1061 for ikpt=   5 by node    0
P newkpt: treating     16 bands with npw=    1070 for ikpt=   6 by node    1
P newkpt: treating     16 bands with npw=    1077 for ikpt=   7 by node    1
P newkpt: treating     16 bands with npw=    1068 for ikpt=   8 by node    1
P newkpt: treating     16 bands with npw=    1069 for ikpt=   9 by node    1
P newkpt: treating     16 bands with npw=    1061 for ikpt=  10 by node    1
P newkpt: treating     16 bands with npw=    1065 for ikpt=  11 by node    2
P newkpt: treating     16 bands with npw=    1061 for ikpt=  12 by node    2
P newkpt: treating     16 bands with npw=    1070 for ikpt=  13 by node    2
P newkpt: treating     16 bands with npw=    1074 for ikpt=  14 by node    2
P newkpt: treating     16 bands with npw=    1067 for ikpt=  15 by node    2
P newkpt: treating     16 bands with npw=    1066 for ikpt=  16 by node    3
P newkpt: treating     16 bands with npw=    1069 for ikpt=  17 by node    3
P newkpt: treating     16 bands with npw=    1071 for ikpt=  18 by node    3
P newkpt: treating     16 bands with npw=    1071 for ikpt=  19 by node    3
P newkpt: treating     16 bands with npw=    1061 for ikpt=  20 by node    3
P newkpt: treating     16 bands with npw=    1063 for ikpt=  21 by node    4
P newkpt: treating     16 bands with npw=    1067 for ikpt=  22 by node    4
P newkpt: treating     16 bands with npw=    1072 for ikpt=  23 by node    4
P newkpt: treating     16 bands with npw=    1074 for ikpt=  24 by node    4
P newkpt: treating     16 bands with npw=    1063 for ikpt=  25 by node    4
P newkpt: treating     16 bands with npw=    1066 for ikpt=  26 by node    5
P newkpt: treating     16 bands with npw=    1066 for ikpt=  27 by node    5
P newkpt: treating     16 bands with npw=    1067 for ikpt=  28 by node    5
P newkpt: treating     16 bands with npw=    1067 for ikpt=  29 by node    5
P newkpt: treating     16 bands with npw=    1065 for ikpt=  30 by node    5
P newkpt: treating     16 bands with npw=    1067 for ikpt=  31 by node    6
P newkpt: treating     16 bands with npw=    1071 for ikpt=  32 by node    6
P newkpt: treating     16 bands with npw=    1071 for ikpt=  33 by node    6
P newkpt: treating     16 bands with npw=    1070 for ikpt=  34 by node    6
P newkpt: treating     16 bands with npw=    1069 for ikpt=  35 by node    6
P newkpt: treating     16 bands with npw=    1065 for ikpt=  36 by node    7
P newkpt: treating     16 bands with npw=    1065 for ikpt=  37 by node    7
P newkpt: treating     16 bands with npw=    1060 for ikpt=  38 by node    7
P newkpt: treating     16 bands with npw=    1059 for ikpt=  39 by node    7
P newkpt: treating     16 bands with npw=    1063 for ikpt=  40 by node    7
 
_setup2: Arith. and geom. avg. npw (full set) are    1067.609    1067.601

================================================================================

=== [ionmov= 2] Broyden-Fletcher-Goldfard-Shanno method (forces)            
================================================================================

--- Iteration: ( 1/40) Internal Cycle: (1/1)
--------------------------------------------------------------------------------

---SELF-CONSISTENT-FIELD CONVERGENCE--------------------------------------------

     iter   Etot(hartree)      deltaE(h)  residm     vres2
 ETOT  1  -71.481893944935    -7.148E+01 3.253E-02 4.427E+02
 ETOT  2  -71.325204602891     1.567E-01 8.830E-03 1.353E+03
 ETOT  3  -71.479565189288    -1.544E-01 1.185E-03 7.382E+02
 ETOT  4  -71.658567101098    -1.790E-01 4.759E-04 1.312E+02
 ETOT  5  -71.681840208560    -2.327E-02 2.836E-04 8.444E+01
 ETOT  6  -71.692071990872    -1.023E-02 2.233E-04 3.846E+01
 ETOT  7  -71.706746980663    -1.467E-02 2.282E-04 3.984E+00
 ETOT  8  -71.706975275093    -2.283E-04 1.495E-04 4.875E+00
 ETOT  9  -71.708221738029    -1.246E-03 1.842E-04 3.456E-01
 ETOT 10  -71.708236464166    -1.473E-05 1.054E-04 4.187E-01
 ETOT 11  -71.708310617595    -7.415E-05 1.619E-04 3.155E-01
 ETOT 12  -71.708377074006    -6.646E-05 8.522E-05 6.102E-02
 ETOT 13  -71.708396901977    -1.983E-05 1.318E-04 2.350E-03
 ETOT 14  -71.708394378040     2.524E-06 6.641E-05 1.710E-02
 ETOT 15  -71.708397050000    -2.672E-06 9.849E-05 4.938E-03
 ETOT 16  -71.708398185363    -1.135E-06 4.872E-05 9.745E-04
 ETOT 17  -71.708398384953    -1.996E-07 6.983E-05 1.214E-04
 ETOT 18  -71.708398438083    -5.313E-08 3.426E-05 3.223E-05
 ETOT 19  -71.708398444206    -6.123E-09 5.087E-05 3.064E-05

 At SCF step   19, etot is converged : 
  for the second time, diff in etot=  6.123E-09 < toldfe=  7.000E-08

 Cartesian components of stress tensor (hartree/bohr^3)
  sigma(1 1)= -1.26031931E-03  sigma(3 2)=  0.00000000E+00
  sigma(2 2)= -1.26031931E-03  sigma(3 1)=  0.00000000E+00
  sigma(3 3)= -1.44388892E-03  sigma(2 1)=  0.00000000E+00
 

---OUTPUT-----------------------------------------------------------------------

 Cartesian coordinates (xcart) [bohr]
  0.00000000000000E+00  0.00000000000000E+00  0.00000000000000E+00
  3.74165774311357E+00  3.74165774311357E+00  3.89283583374442E+00
  0.00000000000000E+00  3.74165774311357E+00  3.66606869779815E+00
  3.74165774311357E+00  0.00000000000000E+00  3.66606869779815E+00
  3.74165774311357E+00  3.74165774311357E+00 -2.26767135946277E-01
 Reduced coordinates (xred)
  0.00000000000000E+00  0.00000000000000E+00  0.00000000000000E+00
  5.00000000000000E-01  5.00000000000000E-01  5.15000000000000E-01
  0.00000000000000E+00  5.00000000000000E-01  4.85000000000000E-01
  5.00000000000000E-01  0.00000000000000E+00  4.85000000000000E-01
  5.00000000000000E-01  5.00000000000000E-01 -3.00000000000000E-02
 Cartesian forces (fcart) [Ha/bohr]; max,rms= 7.06565E-02 2.65772E-02 (free atoms)
  0.00000000000000E+00  0.00000000000000E+00 -5.96450117606149E-03
  0.00000000000000E+00  0.00000000000000E+00 -5.88807472476311E-02
  0.00000000000000E+00  0.00000000000000E+00 -2.90564469391826E-03
  0.00000000000000E+00  0.00000000000000E+00 -2.90564469391826E-03
  0.00000000000000E+00  0.00000000000000E+00  7.06565378115291E-02
 Reduced forces (fred)
  0.00000000000000E+00  0.00000000000000E+00  4.51172535752305E-02
  0.00000000000000E+00  0.00000000000000E+00  4.45106105797840E-01
  0.00000000000000E+00  0.00000000000000E+00  2.19956494510197E-02
  0.00000000000000E+00  0.00000000000000E+00  2.19956494510197E-02
  0.00000000000000E+00  0.00000000000000E+00 -5.34053865239568E-01
 Total energy (etotal) [Ha]= -7.17083984442061E+01

--- Iteration: ( 2/40) Internal Cycle: (1/1)
--------------------------------------------------------------------------------

---SELF-CONSISTENT-FIELD CONVERGENCE--------------------------------------------

     iter   Etot(hartree)      deltaE(h)  residm     vres2
 ETOT  1  -71.714050110993    -7.171E+01 1.324E-04 2.689E+00
 ETOT  2  -71.714009226466     4.088E-05 6.809E-05 1.749E+00
 ETOT  3  -71.714423011282    -4.138E-04 9.818E-06 3.965E-01
 ETOT  4  -71.714586383584    -1.634E-04 8.184E-05 7.149E-02
 ETOT  5  -71.714601521613    -1.514E-05 1.085E-05 6.336E-03
 ETOT  6  -71.714602096462    -5.748E-07 8.328E-05 5.417E-03
 ETOT  7  -71.714604023195    -1.927E-06 1.114E-05 7.380E-04
 ETOT  8  -71.714603723538     2.997E-07 8.031E-05 1.307E-03
 ETOT  9  -71.714604238132    -5.146E-07 1.061E-05 3.271E-04
 ETOT 10  -71.714604358148    -1.200E-07 7.329E-05 3.318E-05
 ETOT 11  -71.714604371948    -1.380E-08 9.667E-06 1.076E-05
 ETOT 12  -71.714604374360    -2.412E-09 6.463E-05 1.399E-06

 At SCF step   12, etot is converged : 
  for the second time, diff in etot=  2.412E-09 < toldfe=  7.000E-08

 Cartesian components of stress tensor (hartree/bohr^3)
  sigma(1 1)= -1.25898422E-03  sigma(3 2)=  0.00000000E+00
  sigma(2 2)= -1.25898422E-03  sigma(3 1)=  0.00000000E+00
  sigma(3 3)= -1.25227696E-03  sigma(2 1)=  0.00000000E+00
 

---OUTPUT-----------------------------------------------------------------------

 Cartesian coordinates (xcart) [bohr]
  0.00000000000000E+00  0.00000000000000E+00  0.00000000000000E+00
  3.74165774311357E+00  3.74165774311357E+00  3.83395508649679E+00
  0.00000000000000E+00  3.74165774311357E+00  3.66316305310423E+00
  3.74165774311357E+00  0.00000000000000E+00  3.66316305310423E+00
  3.74165774311357E+00  3.74165774311357E+00 -1.56110598134748E-01
 Reduced coordinates (xred)
  0.00000000000000E+00  0.00000000000000E+00  0.00000000000000E+00
  5.00000000000000E-01  5.00000000000000E-01  5.07210412632951E-01
  0.00000000000000E+00  5.00000000000000E-01  4.84615599762930E-01
  5.00000000000000E-01  0.00000000000000E+00  4.84615599762930E-01
  5.00000000000000E-01  5.00000000000000E-01 -2.06525426380653E-02
 Cartesian forces (fcart) [Ha/bohr]; max,rms= 3.53316E-02 1.30728E-02 (free atoms)
  0.00000000000000E+00  0.00000000000000E+00 -8.74584892707934E-03
  0.00000000000000E+00  0.00000000000000E+00 -2.83016415645383E-02
  0.00000000000000E+00  0.00000000000000E+00  8.57963598520906E-04
  0.00000000000000E+00  0.00000000000000E+00  8.57963598520906E-04
  0.00000000000000E+00  0.00000000000000E+00  3.53315632945758E-02
 Reduced forces (fred)
  0.00000000000000E+00  0.00000000000000E+00  6.60821682394780E-02
  0.00000000000000E+00  0.00000000000000E+00  2.13902537824673E-01
  0.00000000000000E+00  0.00000000000000E+00 -6.51213378036696E-03
  0.00000000000000E+00  0.00000000000000E+00 -6.51213378036696E-03
  0.00000000000000E+00  0.00000000000000E+00 -2.67094782741461E-01
 Total energy (etotal) [Ha]= -7.17146043743599E+01

 Difference of energy with previous step (new-old):
           Absolute (Ha)=-6.20593E-03
           Relative     =-8.65402E-05

--- Iteration: ( 3/40) Internal Cycle: (1/1)
--------------------------------------------------------------------------------

---SELF-CONSISTENT-FIELD CONVERGENCE--------------------------------------------

     iter   Etot(hartree)      deltaE(h)  residm     vres2
 ETOT  1  -71.716788767988    -7.172E+01 1.053E-04 4.036E-01
 ETOT  2  -71.716782480784     6.287E-06 3.601E-05 1.098E+00
 ETOT  3  -71.716969087170    -1.866E-04 4.572E-05 3.333E-02
 ETOT  4  -71.717078501495    -1.094E-04 2.413E-05 6.079E-03
 ETOT  5  -71.717086226098    -7.725E-06 3.409E-06 5.921E-03
 ETOT  6  -71.717088179795    -1.954E-06 1.654E-05 2.726E-03
 ETOT  7  -71.717089484488    -1.305E-06 2.900E-06 4.718E-04
 ETOT  8  -71.717089689109    -2.046E-07 1.212E-05 1.779E-04
 ETOT  9  -71.717089755609    -6.650E-08 2.418E-06 3.672E-05
 ETOT 10  -71.717089763199    -7.590E-09 8.951E-06 3.506E-05

 At SCF step   10, etot is converged : 
  for the second time, diff in etot=  7.590E-09 < toldfe=  7.000E-08

 Cartesian components of stress tensor (hartree/bohr^3)
  sigma(1 1)= -1.26082165E-03  sigma(3 2)=  0.00000000E+00
  sigma(2 2)= -1.26082165E-03  sigma(3 1)=  0.00000000E+00
  sigma(3 3)= -1.15533310E-03  sigma(2 1)=  0.00000000E+00
 

---OUTPUT-----------------------------------------------------------------------

 Cartesian coordinates (xcart) [bohr]
  0.00000000000000E+00  0.00000000000000E+00  0.00000000000000E+00
  3.74165774311357E+00  3.74165774311357E+00  3.77810344076254E+00
  0.00000000000000E+00  3.74165774311357E+00  3.66483228031461E+00
  3.74165774311357E+00  0.00000000000000E+00  3.66483228031461E+00
  3.74165774311357E+00  3.74165774311357E+00 -8.64003390985844E-02
 Reduced coordinates (xred)
  0.00000000000000E+00  0.00000000000000E+00  0.00000000000000E+00
  5.00000000000000E-01  5.00000000000000E-01  4.99821558136749E-01
  0.00000000000000E+00  5.00000000000000E-01  4.84836429011853E-01
  5.00000000000000E-01  0.00000000000000E+00  4.84836429011853E-01
  5.00000000000000E-01  5.00000000000000E-01 -1.14302725663546E-02
 Cartesian forces (fcart) [Ha/bohr]; max,rms= 8.82740E-03 3.81783E-03 (free atoms)
  0.00000000000000E+00  0.00000000000000E+00 -1.08237912091121E-02
  0.00000000000000E+00  0.00000000000000E+00 -7.32030791919325E-03
  0.00000000000000E+00  0.00000000000000E+00  4.65834843823499E-03
  0.00000000000000E+00  0.00000000000000E+00  4.65834843823499E-03
  0.00000000000000E+00  0.00000000000000E+00  8.82740225183542E-03
 Reduced forces (fred)
  0.00000000000000E+00  0.00000000000000E+00  8.18697507564448E-02
  0.00000000000000E+00  0.00000000000000E+00  5.53872550400932E-02
  0.00000000000000E+00  0.00000000000000E+00 -3.51582647818624E-02
  0.00000000000000E+00  0.00000000000000E+00 -3.51582647818624E-02
  0.00000000000000E+00  0.00000000000000E+00 -6.66717445457315E-02
 Total energy (etotal) [Ha]= -7.17170897631987E+01

 Difference of energy with previous step (new-old):
           Absolute (Ha)=-2.48539E-03
           Relative     =-3.46561E-05

--- Iteration: ( 4/40) Internal Cycle: (1/1)
--------------------------------------------------------------------------------

---SELF-CONSISTENT-FIELD CONVERGENCE--------------------------------------------

     iter   Etot(hartree)      deltaE(h)  residm     vres2
 ETOT  1  -71.717296821255    -7.172E+01 2.532E-05 2.063E-01
 ETOT  2  -71.717201108089     9.571E-05 1.242E-05 5.154E-01
 ETOT  3  -71.717320617884    -1.195E-04 7.583E-06 3.268E-02
 ETOT  4  -71.717359918400    -3.930E-05 8.284E-06 1.247E-02
 ETOT  5  -71.717364169649    -4.251E-06 1.344E-06 2.670E-03
 ETOT  6  -71.717364883358    -7.137E-07 8.227E-06 1.864E-03
 ETOT  7  -71.717365654828    -7.715E-07 1.340E-06 1.604E-04
 ETOT  8  -71.717365651217     3.611E-09 8.046E-06 1.382E-04
 ETOT  9  -71.717365734154    -8.294E-08 1.327E-06 7.989E-06
 ETOT 10  -71.717365740836    -6.681E-09 7.912E-06 5.139E-06
 ETOT 11  -71.717365742777    -1.942E-09 1.302E-06 3.515E-06

 At SCF step   11, etot is converged : 
  for the second time, diff in etot=  1.942E-09 < toldfe=  7.000E-08

 Cartesian components of stress tensor (hartree/bohr^3)
  sigma(1 1)= -1.26270207E-03  sigma(3 2)=  0.00000000E+00
  sigma(2 2)= -1.26270207E-03  sigma(3 1)=  0.00000000E+00
  sigma(3 3)= -1.14044598E-03  sigma(2 1)=  0.00000000E+00
 

---OUTPUT-----------------------------------------------------------------------

 Cartesian coordinates (xcart) [bohr]
  0.00000000000000E+00  0.00000000000000E+00  0.00000000000000E+00
  3.74165774311357E+00  3.74165774311357E+00  3.75773572900737E+00
  0.00000000000000E+00  3.74165774311357E+00  3.67138244090008E+00
  3.74165774311357E+00  0.00000000000000E+00  3.67138244090008E+00
  3.74165774311357E+00  3.74165774311357E+00 -6.14152836925552E-02
 Reduced coordinates (xred)
  0.00000000000000E+00  0.00000000000000E+00  0.00000000000000E+00
  5.00000000000000E-01  5.00000000000000E-01  4.97127025923757E-01
  0.00000000000000E+00  5.00000000000000E-01  4.85702977935461E-01
  5.00000000000000E-01  0.00000000000000E+00  4.85702977935461E-01
  5.00000000000000E-01  5.00000000000000E-01 -8.12489209729733E-03
 Cartesian forces (fcart) [Ha/bohr]; max,rms= 5.66605E-03 2.35461E-03 (free atoms)
  0.00000000000000E+00  0.00000000000000E+00 -1.10578970773058E-02
  0.00000000000000E+00  0.00000000000000E+00 -1.20587654389931E-03
  0.00000000000000E+00  0.00000000000000E+00  5.66605496979010E-03
  0.00000000000000E+00  0.00000000000000E+00  5.66605496979010E-03
  0.00000000000000E+00  0.00000000000000E+00  9.31663681624877E-04
 Reduced forces (fred)
  0.00000000000000E+00  0.00000000000000E+00  8.35812148737180E-02
  0.00000000000000E+00  0.00000000000000E+00  9.11073221890146E-03
  0.00000000000000E+00  0.00000000000000E+00 -4.28335420403757E-02
  0.00000000000000E+00  0.00000000000000E+00 -4.28335420403757E-02
  0.00000000000000E+00  0.00000000000000E+00 -7.04673027816788E-03
 Total energy (etotal) [Ha]= -7.17173657427771E+01

 Difference of energy with previous step (new-old):
           Absolute (Ha)=-2.75980E-04
           Relative     =-3.84816E-06

--- Iteration: ( 5/40) Internal Cycle: (1/1)
--------------------------------------------------------------------------------

---SELF-CONSISTENT-FIELD CONVERGENCE--------------------------------------------

     iter   Etot(hartree)      deltaE(h)  residm     vres2
 ETOT  1  -71.717460851342    -7.172E+01 5.843E-05 5.185E-03
 ETOT  2  -71.717466201608    -5.350E-06 7.430E-06 5.654E-03
 ETOT  3  -71.717466863187    -6.616E-07 9.571E-07 1.627E-03
 ETOT  4  -71.717468166150    -1.303E-06 6.396E-06 2.110E-04
 ETOT  5  -71.717468323617    -1.575E-07 9.386E-07 2.261E-05
 ETOT  6  -71.717468341609    -1.799E-08 6.266E-06 3.922E-05
 ETOT  7  -71.717468361835    -2.023E-08 9.051E-07 3.272E-06

 At SCF step    7, etot is converged : 
  for the second time, diff in etot=  2.023E-08 < toldfe=  7.000E-08

 Cartesian components of stress tensor (hartree/bohr^3)
  sigma(1 1)= -1.26323736E-03  sigma(3 2)=  0.00000000E+00
  sigma(2 2)= -1.26323736E-03  sigma(3 1)=  0.00000000E+00
  sigma(3 3)= -1.13668737E-03  sigma(2 1)=  0.00000000E+00
 

---OUTPUT-----------------------------------------------------------------------

 Cartesian coordinates (xcart) [bohr]
  0.00000000000000E+00  0.00000000000000E+00  0.00000000000000E+00
  3.74165774311357E+00  3.74165774311357E+00  3.74843138889432E+00
  0.00000000000000E+00  3.74165774311357E+00  3.68090270737634E+00
  3.74165774311357E+00  0.00000000000000E+00  3.68090270737634E+00
  3.74165774311357E+00  3.74165774311357E+00 -5.07307512708143E-02
 Reduced coordinates (xred)
  0.00000000000000E+00  0.00000000000000E+00  0.00000000000000E+00
  5.00000000000000E-01  5.00000000000000E-01  4.95896114741558E-01
  0.00000000000000E+00  5.00000000000000E-01  4.86962454945197E-01
  5.00000000000000E-01  0.00000000000000E+00  4.86962454945197E-01
  5.00000000000000E-01  5.00000000000000E-01 -6.71138933679078E-03
 Cartesian forces (fcart) [Ha/bohr]; max,rms= 5.59376E-03 2.36720E-03 (free atoms)
  0.00000000000000E+00  0.00000000000000E+00 -1.05767306647526E-02
  0.00000000000000E+00  0.00000000000000E+00  1.19075631933982E-03
  0.00000000000000E+00  0.00000000000000E+00  5.59375849425707E-03
  0.00000000000000E+00  0.00000000000000E+00  5.59375849425707E-03
  0.00000000000000E+00  0.00000000000000E+00 -1.80154264310137E-03
 Reduced forces (fred)
  0.00000000000000E+00  0.00000000000000E+00  7.99445168223767E-02
  0.00000000000000E+00  0.00000000000000E+00 -9.00479386654756E-03
  0.00000000000000E+00  0.00000000000000E+00 -4.22866669589214E-02
  0.00000000000000E+00  0.00000000000000E+00 -4.22866669589214E-02
  0.00000000000000E+00  0.00000000000000E+00  1.36137083203793E-02
 Total energy (etotal) [Ha]= -7.17174683618351E+01

 Difference of energy with previous step (new-old):
           Absolute (Ha)=-1.02619E-04
           Relative     =-1.43088E-06

--- Iteration: ( 6/40) Internal Cycle: (1/1)
--------------------------------------------------------------------------------

---SELF-CONSISTENT-FIELD CONVERGENCE--------------------------------------------

     iter   Etot(hartree)      deltaE(h)  residm     vres2
 ETOT  1  -71.717626629514    -7.172E+01 1.602E-05 3.760E-02
 ETOT  2  -71.717650113586    -2.348E-05 3.225E-06 8.617E-03
 ETOT  3  -71.717645604783     4.509E-06 1.788E-06 1.440E-02
 ETOT  4  -71.717652883591    -7.279E-06 2.831E-06 7.673E-04
 ETOT  5  -71.717653971900    -1.088E-06 9.418E-07 1.290E-04
 ETOT  6  -71.717654017230    -4.533E-08 2.678E-06 2.342E-04
 ETOT  7  -71.717654101935    -8.471E-08 9.018E-07 1.742E-05
 ETOT  8  -71.717654124224    -2.229E-08 2.513E-06 1.058E-05
 ETOT  9  -71.717654128122    -3.898E-09 8.520E-07 5.074E-06

 At SCF step    9, etot is converged : 
  for the second time, diff in etot=  3.898E-09 < toldfe=  7.000E-08

 Cartesian components of stress tensor (hartree/bohr^3)
  sigma(1 1)= -1.26297143E-03  sigma(3 2)=  0.00000000E+00
  sigma(2 2)= -1.26297143E-03  sigma(3 1)=  0.00000000E+00
  sigma(3 3)= -1.13388741E-03  sigma(2 1)=  0.00000000E+00
 

---OUTPUT-----------------------------------------------------------------------

 Cartesian coordinates (xcart) [bohr]
  0.00000000000000E+00  0.00000000000000E+00  0.00000000000000E+00
  3.74165774311357E+00  3.74165774311357E+00  3.73503244278933E+00
  0.00000000000000E+00  3.74165774311357E+00  3.70729023864290E+00
  3.74165774311357E+00  0.00000000000000E+00  3.70729023864290E+00
  3.74165774311357E+00  3.74165774311357E+00 -3.60035444650981E-02
 Reduced coordinates (xred)
  0.00000000000000E+00  0.00000000000000E+00  0.00000000000000E+00
  5.00000000000000E-01  5.00000000000000E-01  4.94123510517087E-01
  0.00000000000000E+00  5.00000000000000E-01  4.90453374979501E-01
  5.00000000000000E-01  0.00000000000000E+00  4.90453374979501E-01
  5.00000000000000E-01  5.00000000000000E-01 -4.76306378984664E-03
 Cartesian forces (fcart) [Ha/bohr]; max,rms= 4.48862E-03 2.50576E-03 (free atoms)
  0.00000000000000E+00  0.00000000000000E+00 -8.77445542036434E-03
  0.00000000000000E+00  0.00000000000000E+00  4.08370058432084E-03
  0.00000000000000E+00  0.00000000000000E+00  4.48861582339362E-03
  0.00000000000000E+00  0.00000000000000E+00  4.48861582339362E-03
  0.00000000000000E+00  0.00000000000000E+00 -4.28647681074373E-03
 Reduced forces (fred)
  0.00000000000000E+00  0.00000000000000E+00  6.63138277295342E-02
  0.00000000000000E+00  0.00000000000000E+00 -3.08797459615619E-02
  0.00000000000000E+00  0.00000000000000E+00 -3.39404615970798E-02
  0.00000000000000E+00  0.00000000000000E+00 -3.39404615970798E-02
  0.00000000000000E+00  0.00000000000000E+00  3.23896258798068E-02
 Total energy (etotal) [Ha]= -7.17176541281221E+01

 Difference of energy with previous step (new-old):
           Absolute (Ha)=-1.85766E-04
           Relative     =-2.59025E-06

--- Iteration: ( 7/40) Internal Cycle: (1/1)
--------------------------------------------------------------------------------

---SELF-CONSISTENT-FIELD CONVERGENCE--------------------------------------------

     iter   Etot(hartree)      deltaE(h)  residm     vres2
 ETOT  1  -71.717799514202    -7.172E+01 4.045E-06 4.788E-02
 ETOT  2  -71.717822562651    -2.305E-05 2.260E-06 3.444E-03
 ETOT  3  -71.717822180180     3.825E-07 5.671E-07 4.549E-03
 ETOT  4  -71.717824174052    -1.994E-06 1.812E-06 1.762E-04
 ETOT  5  -71.717824694093    -5.200E-07 5.220E-07 3.159E-04
 ETOT  6  -71.717824799555    -1.055E-07 1.739E-06 8.720E-05
 ETOT  7  -71.717824849741    -5.019E-08 5.001E-07 3.264E-05
 ETOT  8  -71.717824865551    -1.581E-08 1.630E-06 9.304E-06

 At SCF step    8, etot is converged : 
  for the second time, diff in etot=  1.581E-08 < toldfe=  7.000E-08

 Cartesian components of stress tensor (hartree/bohr^3)
  sigma(1 1)= -1.26108268E-03  sigma(3 2)=  0.00000000E+00
  sigma(2 2)= -1.26108268E-03  sigma(3 1)=  0.00000000E+00
  sigma(3 3)= -1.13279675E-03  sigma(2 1)=  0.00000000E+00
 

---OUTPUT-----------------------------------------------------------------------

 Cartesian coordinates (xcart) [bohr]
  0.00000000000000E+00  0.00000000000000E+00  0.00000000000000E+00
  3.74165774311357E+00  3.74165774311357E+00  3.72771399223076E+00
  0.00000000000000E+00  3.74165774311357E+00  3.74211381827823E+00
  3.74165774311357E+00  0.00000000000000E+00  3.74211381827823E+00
  3.74165774311357E+00  3.74165774311357E+00 -2.75928793639621E-02
 Reduced coordinates (xred)
  0.00000000000000E+00  0.00000000000000E+00  0.00000000000000E+00
  5.00000000000000E-01  5.00000000000000E-01  4.93155321207640E-01
  0.00000000000000E+00  5.00000000000000E-01  4.95060336145636E-01
  5.00000000000000E-01  0.00000000000000E+00  4.95060336145636E-01
  5.00000000000000E-01  5.00000000000000E-01 -3.65038071969553E-03
 Cartesian forces (fcart) [Ha/bohr]; max,rms= 5.11560E-03 2.06702E-03 (free atoms)
  0.00000000000000E+00  0.00000000000000E+00 -5.95708321357907E-03
  0.00000000000000E+00  0.00000000000000E+00  5.11560011822910E-03
  0.00000000000000E+00  0.00000000000000E+00  2.31623521713277E-03
  0.00000000000000E+00  0.00000000000000E+00  2.31623521713277E-03
  0.00000000000000E+00  0.00000000000000E+00 -3.79098733891557E-03
 Reduced forces (fred)
  0.00000000000000E+00  0.00000000000000E+00  4.52323549798924E-02
  0.00000000000000E+00  0.00000000000000E+00 -3.84650012332483E-02
  0.00000000000000E+00  0.00000000000000E+00 -1.73048691969100E-02
  0.00000000000000E+00  0.00000000000000E+00 -1.73048691969100E-02
  0.00000000000000E+00  0.00000000000000E+00  2.88590430571428E-02
 Total energy (etotal) [Ha]= -7.17178248655513E+01

 Difference of energy with previous step (new-old):
           Absolute (Ha)=-1.70737E-04
           Relative     =-2.38069E-06

--- Iteration: ( 8/40) Internal Cycle: (1/1)
--------------------------------------------------------------------------------

---SELF-CONSISTENT-FIELD CONVERGENCE--------------------------------------------

     iter   Etot(hartree)      deltaE(h)  residm     vres2
 ETOT  1  -71.717624000709    -7.172E+01 4.454E-06 6.554E-02
 ETOT  2  -71.717354938544     2.691E-04 1.918E-06 7.010E-03
 ETOT  3  -71.717251299791     1.036E-04 3.099E-07 1.654E-03
 ETOT  4  -71.717247564562     3.735E-06 1.826E-06 1.970E-03
 ETOT  5  -71.717244383135     3.181E-06 2.954E-07 6.367E-04
 ETOT  6  -71.717243741654     6.415E-07 1.844E-06 1.118E-04
 ETOT  7  -71.717242916045     8.256E-07 2.820E-07 4.066E-05
 ETOT  8  -71.717243179973    -2.639E-07 1.842E-06 1.053E-05
 ETOT  9  -71.717242236046     9.439E-07 2.644E-07 9.355E-06
 ETOT 10  -71.717242915607    -6.796E-07 1.814E-06 3.683E-06
 ETOT 11  -71.717242797867     1.177E-07 2.474E-07 3.153E-06
 ETOT 12  -71.717242885628    -8.776E-08 1.789E-06 1.073E-06

 Cartesian components of stress tensor (hartree/bohr^3)
  sigma(1 1)= -1.26117127E-03  sigma(3 2)=  0.00000000E+00
  sigma(2 2)= -1.26117127E-03  sigma(3 1)=  0.00000000E+00
  sigma(3 3)= -1.13138142E-03  sigma(2 1)=  0.00000000E+00
 

 scprqt:  WARNING -
  nstep=  100 was not enough SCF cycles to converge;
  maximum energy difference=  8.776E-08 exceeds toldfe=  7.000E-08


---OUTPUT-----------------------------------------------------------------------

 Cartesian coordinates (xcart) [bohr]
  0.00000000000000E+00  0.00000000000000E+00  0.00000000000000E+00
  3.74165774311357E+00  3.74165774311357E+00  3.73169212001170E+00
  0.00000000000000E+00  3.74165774311357E+00  3.76402318765164E+00
  3.74165774311357E+00  0.00000000000000E+00  3.76402318765164E+00
  3.74165774311357E+00  3.74165774311357E+00 -2.94299750710921E-02
 Reduced coordinates (xred)
  0.00000000000000E+00  0.00000000000000E+00  0.00000000000000E+00
  5.00000000000000E-01  5.00000000000000E-01  4.93681604846272E-01
  0.00000000000000E+00  5.00000000000000E-01  4.97958820877382E-01
  5.00000000000000E-01  0.00000000000000E+00  4.97958820877382E-01
  5.00000000000000E-01  5.00000000000000E-01 -3.89341801424845E-03
 Cartesian forces (fcart) [Ha/bohr]; max,rms= 1.50348E-02 6.72569E-03 (free atoms)
  0.00000000000000E+00  0.00000000000000E+00 -1.68461337859195E-02
  0.00000000000000E+00  0.00000000000000E+00 -7.89632621944856E-03
  0.00000000000000E+00  0.00000000000000E+00  1.50347744417744E-02
  0.00000000000000E+00  0.00000000000000E+00  1.50347744417744E-02
  0.00000000000000E+00  0.00000000000000E+00 -5.32708887818065E-03
 Reduced forces (fred)
  0.00000000000000E+00  0.00000000000000E+00  4.09432355220458E-02
  0.00000000000000E+00  0.00000000000000E+00 -2.67075054485854E-02
  0.00000000000000E+00  0.00000000000000E+00 -2.00041506149962E-01
  0.00000000000000E+00  0.00000000000000E+00 -2.00041506149962E-01
  0.00000000000000E+00  0.00000000000000E+00 -4.61281252301038E-02
 Total energy (etotal) [Ha]= -7.17172428856277E+01

 Difference of energy with previous step (new-old):
           Absolute (Ha)= 5.81980E-04
           Relative     = 8.11489E-06

--- Iteration: ( 9/40) Internal Cycle: (1/1)
--------------------------------------------------------------------------------

---SELF-CONSISTENT-FIELD CONVERGENCE--------------------------------------------

     iter   Etot(hartree)      deltaE(h)  residm     vres2
 ETOT  1  -71.588682639411    -7.159E+01 3.269E-06 2.929E+01
 ETOT  2  -71.471619438739     1.171E-01 3.106E-05 7.959E+00
 ETOT  3  -71.414400937201     5.722E-02 2.366E-04 5.594E+00
 ETOT  4  -71.419700755022    -5.300E-03 1.839E-04 1.305E+00
 ETOT  5  -71.414291629298     5.409E-03 2.393E-05 3.845E-01
 ETOT  6  -71.414479961557    -1.883E-04 4.988E-06 1.986E-01
 ETOT  7  -71.411718139779     2.762E-03 9.471E-06 7.231E-02
 ETOT  8  -71.413237490881    -1.519E-03 4.005E-06 2.872E-02
 ETOT  9  -71.413250055291    -1.256E-05 4.198E-06 3.356E-02
 ETOT 10  -71.413226848543     2.321E-05 2.100E-06 1.130E-02
 ETOT 11  -71.412868287400     3.586E-04 2.456E-06 6.350E-03
 ETOT 12  -71.413003639390    -1.354E-04 2.135E-06 1.837E-03
 ETOT 13  -71.412970425681     3.321E-05 2.336E-06 3.025E-03
 ETOT 14  -71.412985996262    -1.557E-05 2.293E-06 4.205E-04
 ETOT 15  -71.412948100416     3.790E-05 2.504E-06 2.123E-04
 ETOT 16  -71.412960458702    -1.236E-05 2.423E-06 2.032E-05
 ETOT 17  -71.412936672311     2.379E-05 2.666E-06 2.559E-05
 ETOT 18  -71.412939826144    -3.154E-06 2.542E-06 1.333E-04
 ETOT 19  -71.412949925127    -1.010E-05 2.866E-06 1.025E-04
 ETOT 20  -71.412931094622     1.883E-05 2.627E-06 2.441E-04
 ETOT 21  -71.412977789584    -4.669E-05 3.036E-06 3.193E-04
 ETOT 22  -71.412976306426     1.483E-06 2.739E-06 2.087E-04
 ETOT 23  -71.412973863844     2.443E-06 3.108E-06 2.412E-04
 ETOT 24  -71.412958154708     1.571E-05 3.009E-06 3.993E-05
 ETOT 25  -71.412945596065     1.256E-05 3.397E-06 1.031E-04
 ETOT 26  -71.412955859707    -1.026E-05 3.062E-06 4.402E-05
 ETOT 27  -71.412955744848     1.149E-07 3.614E-06 5.317E-05
 ETOT 28  -71.412963777097    -8.032E-06 3.099E-06 1.794E-04
 ETOT 29  -71.412992939973    -2.916E-05 3.778E-06 6.039E-05
 ETOT 30  -71.412970349185     2.259E-05 3.217E-06 2.003E-04
 ETOT 31  -71.412993211444    -2.286E-05 3.970E-06 1.950E-04
 ETOT 32  -71.412982308264     1.090E-05 3.357E-06 2.261E-04
 ETOT 33  -71.412988962151    -6.654E-06 4.180E-06 1.269E-04
 ETOT 34  -71.412983953295     5.009E-06 3.492E-06 1.660E-04
 ETOT 35  -71.412986086432    -2.133E-06 4.375E-06 1.555E-04
 ETOT 36  -71.412983673024     2.413E-06 3.635E-06 1.217E-04
 ETOT 37  -71.412985709211    -2.036E-06 4.550E-06 1.254E-04
 ETOT 38  -71.412985823819    -1.146E-07 3.773E-06 1.409E-04
 ETOT 39  -71.412985186183     6.376E-07 4.728E-06 1.437E-04
 ETOT 40  -71.412987173174    -1.987E-06 3.888E-06 1.077E-04
 ETOT 41  -71.412987258319    -8.514E-08 4.897E-06 9.411E-05
 ETOT 42  -71.412986580585     6.777E-07 4.009E-06 8.461E-05
 ETOT 43  -71.412987192984    -6.124E-07 5.051E-06 6.858E-05
 ETOT 44  -71.412986963470     2.295E-07 4.119E-06 5.128E-05
 ETOT 45  -71.412987683751    -7.203E-07 5.184E-06 1.853E-05
 ETOT 46  -71.412987028116     6.556E-07 4.226E-06 1.102E-05
 ETOT 47  -71.412986547541     4.806E-07 5.310E-06 1.106E-05
 ETOT 48  -71.412990254023    -3.706E-06 4.302E-06 2.695E-05
 ETOT 49  -71.412984174750     6.079E-06 5.426E-06 1.313E-04
 ETOT 50  -71.412983786578     3.882E-07 4.381E-06 1.738E-05
 ETOT 51  -71.412983555886     2.307E-07 5.500E-06 7.634E-06
 ETOT 52  -71.412984627759    -1.072E-06 4.434E-06 2.008E-05
 ETOT 53  -71.412983199445     1.428E-06 5.561E-06 8.712E-06
 ETOT 54  -71.412984880818    -1.681E-06 4.472E-06 1.819E-05
 ETOT 55  -71.412983475012     1.406E-06 5.601E-06 3.825E-06
 ETOT 56  -71.412983500761    -2.575E-08 4.492E-06 6.662E-06
 ETOT 57  -71.412984923377    -1.423E-06 5.615E-06 4.061E-06
 ETOT 58  -71.412981045300     3.878E-06 4.495E-06 4.955E-06
 ETOT 59  -71.412980572589     4.727E-07 5.598E-06 6.735E-05
 ETOT 60  -71.412982734641    -2.162E-06 4.476E-06 1.332E-04
 ETOT 61  -71.412982868866    -1.342E-07 5.564E-06 8.193E-05
 ETOT 62  -71.412982298904     5.700E-07 4.447E-06 9.753E-06
 ETOT 63  -71.412984048887    -1.750E-06 5.502E-06 2.237E-05
 ETOT 64  -71.412984611720    -5.628E-07 4.390E-06 1.889E-05
 ETOT 65  -71.412983944393     6.673E-07 5.418E-06 4.887E-05
 ETOT 66  -71.412984035792    -9.140E-08 4.320E-06 8.559E-06
 ETOT 67  -71.412983755579     2.802E-07 5.316E-06 5.055E-06
 ETOT 68  -71.412983216491     5.391E-07 4.233E-06 1.073E-05
 ETOT 69  -71.412983837952    -6.215E-07 5.194E-06 3.828E-06
 ETOT 70  -71.412983294226     5.437E-07 4.132E-06 4.371E-06

 Cartesian components of stress tensor (hartree/bohr^3)
  sigma(1 1)= -1.71430979E-03  sigma(3 2)=  0.00000000E+00
  sigma(2 2)= -1.71430979E-03  sigma(3 1)=  0.00000000E+00
  sigma(3 3)= -1.19132933E-03  sigma(2 1)=  0.00000000E+00
 

 scprqt:  WARNING -
  nstep=  100 was not enough SCF cycles to converge;
  maximum energy difference=  5.437E-07 exceeds toldfe=  7.000E-08


---OUTPUT-----------------------------------------------------------------------

 Cartesian coordinates (xcart) [bohr]
  0.00000000000000E+00  0.00000000000000E+00  0.00000000000000E+00
  3.74165774311357E+00  3.74165774311357E+00  3.75263937861258E+00
  0.00000000000000E+00  3.74165774311357E+00  3.74861925104976E+00
  3.74165774311357E+00  0.00000000000000E+00  3.74861925104976E+00
  3.74165774311357E+00  3.74165774311357E+00 -4.71480087915900E-02
 Reduced coordinates (xred)
  0.00000000000000E+00  0.00000000000000E+00  0.00000000000000E+00
  5.00000000000000E-01  5.00000000000000E-01  4.96452807804779E-01
  0.00000000000000E+00  5.00000000000000E-01  4.95920967834312E-01
  5.00000000000000E-01  0.00000000000000E+00  4.95920967834312E-01
  5.00000000000000E-01  5.00000000000000E-01 -6.23741292072760E-03
 Cartesian forces (fcart) [Ha/bohr]; max,rms= 5.71581E-01 2.81695E-01 (free atoms)
  0.00000000000000E+00  0.00000000000000E+00 -3.88971895318399E-01
  0.00000000000000E+00  0.00000000000000E+00 -2.92202270890155E-01
  0.00000000000000E+00  0.00000000000000E+00  5.71580774824496E-01
  0.00000000000000E+00  0.00000000000000E+00  5.71580774824496E-01
  0.00000000000000E+00  0.00000000000000E+00 -4.61987383440439E-01
 Reduced forces (fred)
  0.00000000000000E+00  0.00000000000000E+00  5.28135977655192E-01
  0.00000000000000E+00  0.00000000000000E+00 -2.03336374951131E-01
  0.00000000000000E+00  0.00000000000000E+00 -6.73258995347326E+00
  0.00000000000000E+00  0.00000000000000E+00 -6.73258995347326E+00
  0.00000000000000E+00  0.00000000000000E+00  1.08005308169367E+00
 Total energy (etotal) [Ha]= -7.14129832942256E+01

 Difference of energy with previous step (new-old):
           Absolute (Ha)= 3.04260E-01
           Relative     = 4.25151E-03

--- Iteration: (10/40) Internal Cycle: (1/1)
--------------------------------------------------------------------------------

---SELF-CONSISTENT-FIELD CONVERGENCE--------------------------------------------

     iter   Etot(hartree)      deltaE(h)  residm     vres2
 ETOT  1  -70.606470778065    -7.061E+01 4.751E-04 5.634E+01
 ETOT  2  -70.839004017160    -2.325E-01 2.666E-04 3.684E+02
 ETOT  3  -70.732714120452     1.063E-01 2.874E-03 3.886E+02
 ETOT  4  -70.916805368928    -1.841E-01 2.945E-03 9.359E+01
 ETOT  5  -70.920617359493    -3.812E-03 1.447E-03 1.221E+02
 ETOT  6  -70.928854825662    -8.237E-03 7.223E-05 7.147E+01
 ETOT  7  -70.909239507155     1.962E-02 3.798E-04 1.410E+02
 ETOT  8  -70.877361497207     3.188E-02 4.519E-04 2.341E+02
 ETOT  9  -70.876343315072     1.018E-03 8.732E-05 2.334E+02
 ETOT 10  -70.864705791891     1.164E-02 3.552E-04 2.847E+02
 ETOT 11  -70.860511901761     4.194E-03 7.715E-05 3.034E+02
 ETOT 12  -70.902760825205    -4.225E-02 4.968E-04 1.063E+02
 ETOT 13  -70.907367551026    -4.607E-03 2.243E-04 5.888E+01
 ETOT 14  -70.894122362265     1.325E-02 2.370E-04 1.535E+02
 ETOT 15  -70.896386930067    -2.265E-03 7.983E-05 1.266E+02
 ETOT 16  -70.914097374297    -1.771E-02 3.204E-04 3.967E+01
 ETOT 17  -70.922758877651    -8.662E-03 2.088E-04 2.741E+00
 ETOT 18  -70.920102722568     2.656E-03 2.855E-05 3.110E-01
 ETOT 19  -70.919106684168     9.960E-04 3.345E-05 1.633E+00
 ETOT 20  -70.921812073858    -2.705E-03 5.086E-05 7.991E-01
 ETOT 21  -70.918670581146     3.141E-03 2.074E-04 2.674E-01
 ETOT 22  -70.923076428543    -4.406E-03 1.678E-04 7.638E-01
 ETOT 23  -70.923524210963    -4.478E-04 1.160E-05 6.973E-01
 ETOT 24  -70.923661416018    -1.372E-04 6.452E-05 8.196E-01
 ETOT 25  -70.919397558354     4.264E-03 3.298E-05 5.043E+00
 ETOT 26  -70.924403432189    -5.006E-03 2.586E-05 3.962E+00
 ETOT 27  -70.924689625192    -2.862E-04 8.261E-06 3.840E+00
 ETOT 28  -70.925140667719    -4.510E-04 1.396E-05 3.192E+00
 ETOT 29  -70.925696299170    -5.556E-04 7.233E-06 1.768E+00
 ETOT 30  -70.924848977368     8.473E-04 2.981E-05 7.091E-01
 ETOT 31  -70.924474691327     3.743E-04 4.797E-05 1.570E+00
 ETOT 32  -70.924178886798     2.958E-04 6.816E-06 2.209E+00
 ETOT 33  -70.925404050530    -1.225E-03 3.748E-06 3.551E+00
 ETOT 34  -70.925292725293     1.113E-04 8.989E-06 3.719E+00
 ETOT 35  -70.925444859648    -1.521E-04 2.891E-06 3.377E+00
 ETOT 36  -70.925878418393    -4.336E-04 7.205E-06 3.415E+00
 ETOT 37  -70.926266160600    -3.877E-04 2.961E-06 2.728E+00
 ETOT 38  -70.926160283909     1.059E-04 5.727E-06 4.839E+00
 ETOT 39  -70.927901055462    -1.741E-03 1.612E-05 6.716E+00
 ETOT 40  -70.925761477957     2.140E-03 4.904E-06 5.510E+00
 ETOT 41  -70.926746202405    -9.847E-04 8.004E-06 4.487E+00
 ETOT 42  -70.925861370729     8.848E-04 9.524E-06 2.376E+00
 ETOT 43  -70.923211549368     2.650E-03 3.825E-06 9.689E-01
 ETOT 44  -70.925808054221    -2.597E-03 9.278E-06 4.433E+00
 ETOT 45  -70.926418258359    -6.102E-04 1.798E-05 4.074E+00
 ETOT 46  -70.927511146356    -1.093E-03 2.922E-06 3.765E+00
 ETOT 47  -70.928176927863    -6.658E-04 1.486E-05 2.451E+00
 ETOT 48  -70.928009828654     1.671E-04 2.371E-06 2.288E+00
 ETOT 49  -70.928107236077    -9.741E-05 1.100E-05 3.763E+00
 ETOT 50  -70.928708543712    -6.013E-04 7.056E-06 7.588E+00
 ETOT 51  -70.928594944636     1.136E-04 9.133E-06 5.368E+00
 ETOT 52  -70.928349077771     2.459E-04 2.611E-05 3.767E+00
 ETOT 53  -70.928908552507    -5.595E-04 9.598E-06 3.522E+00
 ETOT 54  -70.929257007823    -3.485E-04 3.631E-06 3.978E+00
 ETOT 55  -70.929247120039     9.888E-06 9.391E-06 4.291E+00
 ETOT 56  -70.929130515968     1.166E-04 3.856E-06 4.241E+00
 ETOT 57  -70.928955769694     1.747E-04 8.517E-06 3.669E+00
 ETOT 58  -70.929248552455    -2.928E-04 3.136E-05 1.843E+00
 ETOT 59  -70.927636109233     1.612E-03 7.208E-06 3.918E+00
 ETOT 60  -70.927478099298     1.580E-04 5.077E-05 1.742E+00
 ETOT 61  -70.928133179023    -6.551E-04 2.738E-05 1.879E+00
 ETOT 62  -70.929326965558    -1.194E-03 4.151E-06 2.060E+00
 ETOT 63  -70.928759174330     5.678E-04 4.616E-06 2.061E+00
 ETOT 64  -70.929450669387    -6.915E-04 4.433E-06 1.204E+00
 ETOT 65  -70.928791427835     6.592E-04 4.349E-06 2.340E+00
 ETOT 66  -70.929450007685    -6.586E-04 4.673E-06 1.918E+00
 ETOT 67  -70.928369769778     1.080E-03 8.634E-06 5.095E+00
 ETOT 68  -70.929143988420    -7.742E-04 1.259E-04 2.599E+00
 ETOT 69  -70.929191544087    -4.756E-05 5.778E-06 3.609E+00
 ETOT 70  -70.929281658421    -9.011E-05 1.486E-05 1.739E+00
 ETOT 71  -70.928315283564     9.664E-04 4.968E-06 6.113E+00
 ETOT 72  -70.928675222846    -3.599E-04 3.973E-06 8.089E+00
 ETOT 73  -70.928278161137     3.971E-04 2.796E-06 6.018E+00
 ETOT 74  -70.929169464822    -8.913E-04 2.605E-05 1.735E-01
 ETOT 75  -70.928201277114     9.682E-04 5.513E-04 5.285E-01
 ETOT 76  -70.927291537207     9.097E-04 8.758E-05 2.020E+00
 ETOT 77  -70.927881124551    -5.896E-04 1.115E-05 2.182E+00
 ETOT 78  -70.929352162125    -1.471E-03 5.199E-04 1.169E-01
 ETOT 79  -70.929471706313    -1.195E-04 1.147E-05 1.443E-01
 ETOT 80  -70.930030984500    -5.593E-04 3.825E-06 1.481E-01
 ETOT 81  -70.929489356739     5.416E-04 2.283E-06 9.710E-02
 ETOT 82  -70.927357538935     2.132E-03 2.995E-05 7.146E-01
 ETOT 83  -70.928362246092    -1.005E-03 2.973E-05 1.807E-02
 ETOT 84  -70.930194548465    -1.832E-03 1.906E-05 9.446E-01
 ETOT 85  -70.929668059687     5.265E-04 6.794E-06 6.048E-01
 ETOT 86  -70.930270074588    -6.020E-04 3.256E-06 2.759E-01
 ETOT 87  -70.929254754858     1.015E-03 1.961E-06 4.690E-01
 ETOT 88  -70.929519870992    -2.651E-04 2.663E-06 6.538E-01
 ETOT 89  -70.928864620630     6.553E-04 1.784E-06 1.730E-01
 ETOT 90  -70.929156153676    -2.915E-04 2.815E-06 1.318E-01
 ETOT 91  -70.930206223869    -1.050E-03 5.174E-06 3.194E-01
 ETOT 92  -70.929902000336     3.042E-04 2.804E-06 1.041E+00
 ETOT 93  -70.929949503887    -4.750E-05 2.001E-06 1.013E+00
 ETOT 94  -70.928543185966     1.406E-03 4.253E-06 6.507E-02
 ETOT 95  -70.929306085462    -7.629E-04 1.894E-06 1.148E-01
 ETOT 96  -70.927314187754     1.992E-03 4.932E-06 4.661E-01
 ETOT 97  -70.927514231872    -2.000E-04 2.380E-05 1.946E+00
 ETOT 98  -70.929918528143    -2.404E-03 6.916E-06 3.883E-01
 ETOT 99  -70.929110493983     8.080E-04 3.105E-06 1.021E+00
 ETOT100  -70.930477106541    -1.367E-03 4.476E-06 6.223E-01

 Cartesian components of stress tensor (hartree/bohr^3)
  sigma(1 1)= -2.66442264E-03  sigma(3 2)=  0.00000000E+00
  sigma(2 2)= -2.66442264E-03  sigma(3 1)=  0.00000000E+00
  sigma(3 3)= -1.10356278E-03  sigma(2 1)=  0.00000000E+00
 

 scprqt:  WARNING -
  nstep=  100 was not enough SCF cycles to converge;
  maximum energy difference=  1.367E-03 exceeds toldfe=  7.000E-08


---OUTPUT-----------------------------------------------------------------------

 Cartesian coordinates (xcart) [bohr]
  0.00000000000000E+00  0.00000000000000E+00  0.00000000000000E+00
  3.74165774311357E+00  3.74165774311357E+00  3.69896298452814E+00
  0.00000000000000E+00  3.74165774311357E+00  3.77178565553941E+00
  3.74165774311357E+00  0.00000000000000E+00  3.77178565553941E+00
  3.74165774311357E+00  3.74165774311357E+00  8.69731260800915E-03
 Reduced coordinates (xred)
  0.00000000000000E+00  0.00000000000000E+00  0.00000000000000E+00
  5.00000000000000E-01  5.00000000000000E-01  4.89351726707584E-01
  0.00000000000000E+00  5.00000000000000E-01  4.98985751149537E-01
  5.00000000000000E-01  0.00000000000000E+00  4.98985751149537E-01
  5.00000000000000E-01  5.00000000000000E-01  1.15060490203522E-03
 Cartesian forces (fcart) [Ha/bohr]; max,rms= 3.77997E-01 1.23486E-01 (free atoms)
  0.00000000000000E+00  0.00000000000000E+00  1.40527831908883E-01
  0.00000000000000E+00  0.00000000000000E+00  1.98340691933342E-01
  0.00000000000000E+00  0.00000000000000E+00  1.95641881154114E-02
  0.00000000000000E+00  0.00000000000000E+00  1.95641881154114E-02
  0.00000000000000E+00  0.00000000000000E+00 -3.77996900073047E-01
 Reduced forces (fred)
  0.00000000000000E+00  0.00000000000000E+00  8.00372842246980E-02
  0.00000000000000E+00  0.00000000000000E+00 -3.56964605395620E-01
  0.00000000000000E+00  0.00000000000000E+00  9.94389919447070E-01
  0.00000000000000E+00  0.00000000000000E+00  9.94389919447070E-01
  0.00000000000000E+00  0.00000000000000E+00  3.99951623051981E+00
 Total energy (etotal) [Ha]= -7.09304771065411E+01

 Difference of energy with previous step (new-old):
           Absolute (Ha)= 4.82506E-01
           Relative     = 6.77946E-03

--- Iteration: (11/40) Internal Cycle: (1/1)
--------------------------------------------------------------------------------

---SELF-CONSISTENT-FIELD CONVERGENCE--------------------------------------------

     iter   Etot(hartree)      deltaE(h)  residm     vres2
 ETOT  1  -56.803743747160    -5.680E+01 2.723E+00 2.535E+04
 ETOT  2  -56.235980995538     5.678E-01 1.598E-01 2.240E+03
 ETOT  3  -59.176545587184    -2.941E+00 2.342E-01 1.007E+03
 ETOT  4  -57.618901419545     1.558E+00 2.729E-01 9.210E+02
 ETOT  5  -56.157022888468     1.462E+00 1.312E-01 5.326E+02
 ETOT  6  -56.131097633462     2.593E-02 1.997E-03 5.834E+02
 ETOT  7  -56.216937599235    -8.584E-02 4.512E-02 3.112E+02
 ETOT  8  -56.277771420414    -6.083E-02 1.056E-02 1.398E+02
 ETOT  9  -56.322081806956    -4.431E-02 2.814E-03 1.496E+01
 ETOT 10  -56.310911920300     1.117E-02 2.097E-03 2.556E+01
 ETOT 11  -56.346013967281    -3.510E-02 1.728E-02 3.746E+01
 ETOT 12  -56.379788927276    -3.377E-02 9.555E-04 4.646E+01
 ETOT 13  -56.414305213921    -3.452E-02 1.312E-02 1.192E+02
 ETOT 14  -56.401268881197     1.304E-02 6.161E-04 8.026E+01
 ETOT 15  -56.397523365987     3.746E-03 1.183E-03 4.139E+01
 ETOT 16  -56.400148063393    -2.625E-03 2.323E-04 2.977E+01
 ETOT 17  -56.404829919314    -4.682E-03 7.653E-04 2.695E+01
 ETOT 18  -56.410857353105    -6.027E-03 9.152E-05 2.923E+01
 ETOT 19  -56.405813450590     5.044E-03 3.637E-04 2.558E+01
 ETOT 20  -56.398970489249     6.843E-03 4.593E-04 2.943E+01
 ETOT 21  -56.425474190035    -2.650E-02 1.105E-03 2.333E+01
 ETOT 22  -56.404659320792     2.081E-02 1.123E-03 1.160E+01
 ETOT 23  -56.412796484864    -8.137E-03 4.160E-04 1.341E+01
 ETOT 24  -56.404732747968     8.064E-03 8.630E-05 1.460E+01
 ETOT 25  -56.402208704805     2.524E-03 9.142E-04 4.883E+01
 ETOT 26  -56.404294804537    -2.086E-03 5.536E-04 4.649E+01
 ETOT 27  -56.391370271619     1.292E-02 2.056E-03 2.564E+01
 ETOT 28  -56.403551417865    -1.218E-02 8.118E-04 5.736E+00
 ETOT 29  -56.395045692452     8.506E-03 7.046E-04 2.420E+00
 ETOT 30  -56.406147441140    -1.110E-02 6.346E-05 6.400E-01
 ETOT 31  -56.403328535519     2.819E-03 1.175E-04 1.133E-01
 ETOT 32  -56.405928072846    -2.600E-03 4.182E-05 2.081E-01
 ETOT 33  -56.406636301389    -7.082E-04 9.034E-05 1.718E-01
 ETOT 34  -56.405181196656     1.455E-03 2.258E-05 8.664E-02
 ETOT 35  -56.403771968264     1.409E-03 7.457E-05 1.985E-02
 ETOT 36  -56.393142834237     1.063E-02 2.514E-05 4.146E-01
 ETOT 37  -56.401596669902    -8.454E-03 7.711E-05 1.653E-01
 ETOT 38  -56.404027337575    -2.431E-03 1.409E-05 2.427E-01
 ETOT 39  -56.407813134085    -3.786E-03 5.241E-05 3.147E-01
 ETOT 40  -56.407577370716     2.358E-04 1.346E-05 5.706E-01
 ETOT 41  -56.402639526584     4.938E-03 1.731E-04 7.570E-01
 ETOT 42  -56.396449268517     6.190E-03 1.211E-05 6.694E-01
 ETOT 43  -56.398643139601    -2.194E-03 8.371E-05 1.087E+00
 ETOT 44  -56.400074356155    -1.431E-03 5.505E-05 2.711E+00
 ETOT 45  -56.396032749202     4.042E-03 3.650E-05 8.011E-01
 ETOT 46  -56.395602619955     4.301E-04 1.115E-05 6.302E-01
 ETOT 47  -56.396064236403    -4.616E-04 4.730E-05 5.526E-01
 ETOT 48  -56.396905846592    -8.416E-04 3.073E-05 2.350E-01
 ETOT 49  -56.395404233876     1.502E-03 1.192E-05 1.096E+00
 ETOT 50  -56.395778940902    -3.747E-04 1.251E-05 2.616E+00
 ETOT 51  -56.395482925203     2.960E-04 5.821E-05 6.611E-02
 ETOT 52  -56.401092912852    -5.610E-03 1.165E-04 3.020E-02
 ETOT 53  -56.397687425045     3.405E-03 2.918E-06 5.350E-02
 ETOT 54  -56.398697648460    -1.010E-03 9.917E-06 8.519E-02
 ETOT 55  -56.397883827536     8.138E-04 4.256E-06 1.911E-02
 ETOT 56  -56.399212542448    -1.329E-03 2.860E-05 1.192E-01
 ETOT 57  -56.396991350423     2.221E-03 1.523E-06 4.968E-02
 ETOT 58  -56.397407296923    -4.159E-04 7.020E-06 3.967E-02
 ETOT 59  -56.393432311124     3.975E-03 9.438E-05 1.486E-01
 ETOT 60  -56.393425815699     6.495E-06 6.059E-06 1.966E-01
 ETOT 61  -56.393713702988    -2.879E-04 1.152E-05 8.786E-02
 ETOT 62  -56.395328898810    -1.615E-03 3.655E-05 7.377E-02
 ETOT 63  -56.394858027479     4.709E-04 4.313E-06 5.112E-02
 ETOT 64  -56.395466127867    -6.081E-04 4.546E-06 2.867E-02
 ETOT 65  -56.397314740597    -1.849E-03 3.265E-05 2.760E-03
 ETOT 66  -56.398687646779    -1.373E-03 1.075E-05 2.025E-02
 ETOT 67  -56.397695004949     9.926E-04 8.601E-07 1.181E-02
 ETOT 68  -56.396800597462     8.944E-04 3.109E-06 6.103E-02
 ETOT 69  -56.398234524281    -1.434E-03 3.701E-05 8.406E-02
 ETOT 70  -56.399461697173    -1.227E-03 9.162E-05 7.614E-02
 ETOT 71  -56.394747935054     4.714E-03 2.732E-05 8.212E-02
 ETOT 72  -56.396241489327    -1.494E-03 2.258E-06 3.413E-02
 ETOT 73  -56.397047122858    -8.056E-04 5.998E-07 2.316E-02
 ETOT 74  -56.396203250839     8.439E-04 1.888E-06 2.916E-02
 ETOT 75  -56.396618806405    -4.156E-04 5.062E-07 1.417E-02
 ETOT 76  -56.396275188419     3.436E-04 1.620E-06 7.327E-03
 ETOT 77  -56.397705385511    -1.430E-03 1.486E-06 4.176E-03
 ETOT 78  -56.397074712635     6.307E-04 1.082E-05 2.282E-02
 ETOT 79  -56.396041018828     1.034E-03 1.475E-05 1.297E-02
 ETOT 80  -56.396858631229    -8.176E-04 1.868E-06 8.629E-03
 ETOT 81  -56.397203731255    -3.451E-04 1.008E-06 3.650E-03
 ETOT 82  -56.397223547416    -1.982E-05 9.679E-07 6.790E-03
 ETOT 83  -56.397862851493    -6.393E-04 9.118E-07 1.457E-03
 ETOT 84  -56.396978114539     8.847E-04 8.293E-07 7.986E-04
 ETOT 85  -56.397133780763    -1.557E-04 6.036E-07 3.392E-04
 ETOT 86  -56.396002462117     1.131E-03 1.115E-06 1.439E-04
 ETOT 87  -56.395947610559     5.485E-05 5.253E-07 4.247E-04
 ETOT 88  -56.396054202798    -1.066E-04 6.025E-07 8.814E-04
 ETOT 89  -56.397191203917    -1.137E-03 1.130E-06 2.426E-03
 ETOT 90  -56.396855980534     3.352E-04 5.149E-07 3.493E-03
 ETOT 91  -56.397225506092    -3.695E-04 4.408E-07 4.911E-03
 ETOT 92  -56.397267485890    -4.198E-05 4.387E-07 5.181E-03
 ETOT 93  -56.397274850650    -7.365E-06 3.853E-07 4.418E-03
 ETOT 94  -56.397067593785     2.073E-04 3.717E-07 3.568E-03
 ETOT 95  -56.397051075579     1.652E-05 3.798E-07 3.746E-03
 ETOT 96  -56.397381951354    -3.309E-04 6.201E-07 9.230E-03
 ETOT 97  -56.396894579929     4.874E-04 3.593E-07 8.767E-03
 ETOT 98  -56.396602042762     2.925E-04 3.179E-07 7.226E-03
 ETOT 99  -56.396597603406     4.439E-06 4.630E-07 6.998E-04
 ETOT100  -56.396668927579    -7.132E-05 2.682E-07 1.718E-03

 Cartesian components of stress tensor (hartree/bohr^3)
  sigma(1 1)= -2.38687938E-02  sigma(3 2)=  0.00000000E+00
  sigma(2 2)= -2.38687938E-02  sigma(3 1)=  0.00000000E+00
  sigma(3 3)= -1.98889099E-02  sigma(2 1)=  0.00000000E+00
 

 scprqt:  WARNING -
  nstep=  100 was not enough SCF cycles to converge;
  maximum energy difference=  7.132E-05 exceeds toldfe=  7.000E-08


---OUTPUT-----------------------------------------------------------------------

 Cartesian coordinates (xcart) [bohr]
  0.00000000000000E+00  0.00000000000000E+00  0.00000000000000E+00
  3.74165774311357E+00  3.74165774311357E+00  4.05511684480537E+00
  0.00000000000000E+00  3.74165774311357E+00  3.87586573316625E+00
  3.74165774311357E+00  0.00000000000000E+00  3.87586573316625E+00
  3.74165774311357E+00  3.74165774311357E+00 -3.36006070009439E-01
 Reduced coordinates (xred)
  0.00000000000000E+00  0.00000000000000E+00  0.00000000000000E+00
  5.00000000000000E-01  5.00000000000000E-01  5.36468853110099E-01
  0.00000000000000E+00  5.00000000000000E-01  5.12754952386637E-01
  5.00000000000000E-01  0.00000000000000E+00  5.12754952386637E-01
  5.00000000000000E-01  5.00000000000000E-01 -4.44516885492228E-02
 Cartesian forces (fcart) [Ha/bohr]; max,rms= 4.62991E+00 1.78942E+00 (free atoms)
  0.00000000000000E+00  0.00000000000000E+00  4.22859860238104E-01
  0.00000000000000E+00  0.00000000000000E+00  6.93179321620571E-01
  0.00000000000000E+00  0.00000000000000E+00 -2.87297223890437E+00
  0.00000000000000E+00  0.00000000000000E+00 -2.87297223890437E+00
  0.00000000000000E+00  0.00000000000000E+00  4.62990529595006E+00
 Reduced forces (fred)
  0.00000000000000E+00  0.00000000000000E+00 -1.51890335813304E+00
  0.00000000000000E+00  0.00000000000000E+00 -3.56222235974111E+00
  0.00000000000000E+00  0.00000000000000E+00  2.33939768312785E+01
  0.00000000000000E+00  0.00000000000000E+00  2.33939768312785E+01
  0.00000000000000E+00  0.00000000000000E+00 -3.33195581665416E+01
 Total energy (etotal) [Ha]= -5.63966689275787E+01

 Difference of energy with previous step (new-old):
           Absolute (Ha)= 1.45338E+01
           Relative     = 2.28291E-01

--- Iteration: (12/40) Internal Cycle: (1/1)
--------------------------------------------------------------------------------

---SELF-CONSISTENT-FIELD CONVERGENCE--------------------------------------------

     iter   Etot(hartree)      deltaE(h)  residm     vres2
 ETOT  1  -51.727912775272    -5.173E+01 1.374E+01 2.370E+04
 ETOT  2  -58.981497732186    -7.254E+00 5.122E-01 9.902E+03
 ETOT  3  -65.655820269982    -6.674E+00 1.187E-01 3.601E+03
 ETOT  4  -66.555462955484    -8.996E-01 6.092E-02 6.639E+03
 ETOT  5  -66.857974010130    -3.025E-01 1.157E-02 5.608E+03
 ETOT  6  -66.990893532714    -1.329E-01 6.740E-03 5.392E+03
 ETOT  7  -66.901374039652     8.952E-02 1.594E-02 5.363E+03
 ETOT  8  -66.420521988924     4.809E-01 5.544E-02 5.935E+03
 ETOT  9  -66.221837175721     1.987E-01 1.671E-02 1.020E+04
 ETOT 10  -66.022036113663     1.998E-01 6.022E-03 1.750E+04
 ETOT 11  -66.461577554317    -4.395E-01 2.850E-03 8.121E+03
 ETOT 12  -66.478632044250    -1.705E-02 9.449E-03 1.897E+03
 ETOT 13  -66.880549619337    -4.019E-01 2.110E-02 5.825E+02
 ETOT 14  -66.952518934254    -7.197E-02 2.282E-03 1.940E+02
 ETOT 15  -66.980436297346    -2.792E-02 5.350E-03 2.629E+01
 ETOT 16  -67.016036967329    -3.560E-02 1.015E-02 5.063E+00
 ETOT 17  -67.013098881921     2.938E-03 1.269E-02 3.850E+01
 ETOT 18  -66.871907808704     1.412E-01 2.730E-03 6.862E+01
 ETOT 19  -66.688569968875     1.833E-01 1.200E-03 1.689E+02
 ETOT 20  -66.347911151793     3.407E-01 5.556E-04 2.152E+02
 ETOT 21  -66.359576108160    -1.166E-02 4.848E-04 1.898E+02
 ETOT 22  -66.341485315981     1.809E-02 7.204E-03 2.944E+02
 ETOT 23  -66.351458485035    -9.973E-03 2.511E-03 2.613E+02
 ETOT 24  -66.432877733524    -8.142E-02 3.850E-03 5.220E+01
 ETOT 25  -66.449945374669    -1.707E-02 3.520E-03 5.366E+01
 ETOT 26  -66.456808275866    -6.863E-03 1.240E-03 8.833E+01
 ETOT 27  -66.474015690702    -1.721E-02 1.037E-03 9.638E+01
 ETOT 28  -66.469654196593     4.361E-03 3.071E-04 3.311E+01
 ETOT 29  -66.442866810298     2.679E-02 3.689E-04 4.356E+01
 ETOT 30  -66.443584659205    -7.178E-04 5.065E-03 1.453E+01
 ETOT 31  -66.419254854507     2.433E-02 2.686E-03 1.351E+02
 ETOT 32  -66.396234559706     2.302E-02 5.495E-04 2.066E+02
 ETOT 33  -66.357212160092     3.902E-02 2.421E-04 1.939E+02
 ETOT 34  -66.342950758091     1.426E-02 3.088E-04 1.788E+02
 ETOT 35  -66.297886751918     4.506E-02 1.531E-04 1.679E+02
 ETOT 36  -66.281741134917     1.615E-02 1.918E-04 1.882E+02
 ETOT 37  -66.272729478047     9.012E-03 7.837E-05 1.498E+02
 ETOT 38  -66.330408913567    -5.768E-02 5.824E-04 4.149E+01
 ETOT 39  -66.341889414561    -1.148E-02 6.761E-05 4.051E+01
 ETOT 40  -66.344502413079    -2.613E-03 2.141E-04 2.637E+01
 ETOT 41  -66.324204778921     2.030E-02 4.237E-04 5.467E+01
 ETOT 42  -66.222830137917     1.014E-01 9.398E-05 6.903E+01
 ETOT 43  -66.236371421183    -1.354E-02 2.087E-04 5.424E+01
 ETOT 44  -66.062110735210     1.743E-01 7.756E-04 6.895E+01
 ETOT 45  -66.040856342626     2.125E-02 6.285E-05 1.075E+02
 ETOT 46  -66.032054767233     8.802E-03 1.143E-02 3.596E+02
 ETOT 47  -65.922091082145     1.100E-01 5.167E-02 1.180E+01
 ETOT 48  -65.809372005403     1.127E-01 2.996E-03 2.860E+01
 ETOT 49  -66.024254151575    -2.149E-01 3.420E-02 3.267E+01
 ETOT 50  -66.097882544637    -7.363E-02 1.161E-03 1.911E+01
 ETOT 51  -66.123083330894    -2.520E-02 1.833E-03 6.347E+00
 ETOT 52  -66.009425552656     1.137E-01 2.278E-03 6.369E+00
 ETOT 53  -66.111740282241    -1.023E-01 3.566E-03 1.353E+01
 ETOT 54  -66.182903664407    -7.116E-02 1.989E-03 3.888E+00
 ETOT 55  -66.179937015403     2.967E-03 7.685E-05 4.660E+00
 ETOT 56  -66.192238827856    -1.230E-02 1.305E-04 4.747E+00
 ETOT 57  -66.177536310133     1.470E-02 3.342E-04 9.543E+00
 ETOT 58  -66.183833765779    -6.297E-03 2.495E-03 7.717E+00
 ETOT 59  -66.214943003880    -3.111E-02 1.076E-04 1.612E+01
 ETOT 60  -66.223429246745    -8.486E-03 1.998E-04 1.235E+01
 ETOT 61  -66.250679151073    -2.725E-02 1.126E-03 5.263E+00
 ETOT 62  -66.253667497209    -2.988E-03 1.263E-03 8.383E+00
 ETOT 63  -66.240899420889     1.277E-02 5.511E-04 1.776E+01
 ETOT 64  -66.235752139071     5.147E-03 1.240E-04 1.317E+01
 ETOT 65  -66.229815812683     5.936E-03 8.539E-04 3.861E+01
 ETOT 66  -66.209161888317     2.065E-02 7.339E-05 3.012E+01
 ETOT 67  -66.261681890895    -5.252E-02 7.819E-05 2.570E+00
 ETOT 68  -66.247474805535     1.421E-02 6.084E-05 5.536E+00
 ETOT 69  -66.245542875952     1.932E-03 5.597E-04 5.766E+00
 ETOT 70  -66.256563867817    -1.102E-02 1.419E-04 7.287E+00
 ETOT 71  -66.262175993219    -5.612E-03 1.124E-04 1.599E+00
 ETOT 72  -66.268135533063    -5.960E-03 7.421E-06 2.236E+00
 ETOT 73  -66.263783282658     4.352E-03 8.821E-06 3.733E+00
 ETOT 74  -66.263972068447    -1.888E-04 1.478E-05 2.480E+00
 ETOT 75  -66.269975525998    -6.003E-03 5.296E-05 1.930E+00
 ETOT 76  -66.266794438424     3.181E-03 8.827E-06 1.288E+00
 ETOT 77  -66.263789421929     3.005E-03 3.489E-05 1.542E+00
 ETOT 78  -66.274031843926    -1.024E-02 7.874E-05 4.799E-01
 ETOT 79  -66.272059738357     1.972E-03 2.946E-06 4.371E-01
 ETOT 80  -66.274135742232    -2.076E-03 2.584E-06 6.418E-01
 ETOT 81  -66.274747633636    -6.119E-04 1.078E-05 7.360E-01
 ETOT 82  -66.284322992877    -9.575E-03 3.953E-04 1.278E+00
 ETOT 83  -66.277202379404     7.121E-03 9.384E-05 2.169E+00
 ETOT 84  -66.276530305814     6.721E-04 5.977E-05 3.929E+00
 ETOT 85  -66.276249585566     2.807E-04 1.352E-06 3.740E+00
 ETOT 86  -66.279611142589    -3.362E-03 5.188E-06 4.305E+00
 ETOT 87  -66.278388818323     1.222E-03 3.501E-06 3.582E+00
 ETOT 88  -66.278964661630    -5.758E-04 5.826E-06 2.924E+00
 ETOT 89  -66.274808725925     4.156E-03 1.065E-05 3.123E+00
 ETOT 90  -66.282090120930    -7.281E-03 2.285E-04 2.696E+00
 ETOT 91  -66.282652043261    -5.619E-04 1.836E-06 2.740E+00
 ETOT 92  -66.282087639966     5.644E-04 3.150E-06 2.086E+00
 ETOT 93  -66.284550872184    -2.463E-03 2.134E-05 1.641E+00
 ETOT 94  -66.281096246850     3.455E-03 3.168E-07 1.440E+00
 ETOT 95  -66.281443226767    -3.470E-04 1.627E-06 1.025E+00
 ETOT 96  -66.282499760355    -1.057E-03 3.024E-06 1.602E+00
 ETOT 97  -66.283295227575    -7.955E-04 2.363E-07 1.625E+00
 ETOT 98  -66.283860780788    -5.656E-04 5.218E-07 1.725E+00
 ETOT 99  -66.282442042312     1.419E-03 1.219E-06 1.890E+00
 ETOT100  -66.281048237803     1.394E-03 5.170E-06 2.015E+00

 Cartesian components of stress tensor (hartree/bohr^3)
  sigma(1 1)= -1.42276655E-02  sigma(3 2)=  0.00000000E+00
  sigma(2 2)= -1.42276655E-02  sigma(3 1)=  0.00000000E+00
  sigma(3 3)=  3.63018447E-03  sigma(2 1)=  0.00000000E+00
 

 scprqt:  WARNING -
  nstep=  100 was not enough SCF cycles to converge;
  maximum energy difference=  1.394E-03 exceeds toldfe=  7.000E-08


---OUTPUT-----------------------------------------------------------------------

 Cartesian coordinates (xcart) [bohr]
  0.00000000000000E+00  0.00000000000000E+00  0.00000000000000E+00
  3.74165774311357E+00  3.74165774311357E+00  3.79623607773901E+00
  0.00000000000000E+00  3.74165774311357E+00  3.79098743355867E+00
  3.74165774311357E+00  0.00000000000000E+00  3.79098743355867E+00
  3.74165774311357E+00  3.74165774311357E+00 -1.96698342356195E-02
 Reduced coordinates (xred)
  0.00000000000000E+00  0.00000000000000E+00  0.00000000000000E+00
  5.00000000000000E-01  5.00000000000000E-01  5.02220402691645E-01
  0.00000000000000E+00  5.00000000000000E-01  5.01526036972586E-01
  5.00000000000000E-01  0.00000000000000E+00  5.01526036972586E-01
  5.00000000000000E-01  5.00000000000000E-01 -2.60220699355829E-03
 Cartesian forces (fcart) [Ha/bohr]; max,rms= 2.84851E+00 1.59251E+00 (free atoms)
  0.00000000000000E+00  0.00000000000000E+00 -3.72086622795037E-01
  0.00000000000000E+00  0.00000000000000E+00 -2.77963440583877E+00
  0.00000000000000E+00  0.00000000000000E+00  2.84850765914145E+00
  0.00000000000000E+00  0.00000000000000E+00  2.84850765914145E+00
  0.00000000000000E+00  0.00000000000000E+00 -2.54529428964908E+00
 Reduced forces (fred)
  0.00000000000000E+00  0.00000000000000E+00  2.79304105299745E+00
  0.00000000000000E+00  0.00000000000000E+00  2.09914649001520E+01
  0.00000000000000E+00  0.00000000000000E+00 -2.15511236589923E+01
  0.00000000000000E+00  0.00000000000000E+00 -2.15511236589923E+01
  0.00000000000000E+00  0.00000000000000E+00  1.92201103339636E+01
 Total energy (etotal) [Ha]= -6.62810482378028E+01

 Difference of energy with previous step (new-old):
           Absolute (Ha)=-9.88438E+00
           Relative     =-1.61144E-01

--- Iteration: (13/40) Internal Cycle: (1/1)
--------------------------------------------------------------------------------

---SELF-CONSISTENT-FIELD CONVERGENCE--------------------------------------------

     iter   Etot(hartree)      deltaE(h)  residm     vres2
 ETOT  1  -44.110460690603    -4.411E+01 1.811E+00 5.252E+05
 ETOT  2  -50.810957353117    -6.700E+00 6.004E-02 1.247E+05
 ETOT  3  -52.978110903965    -2.167E+00 1.997E-01 1.810E+04
 ETOT  4  -54.832344751795    -1.854E+00 1.755E-01 5.412E+03
 ETOT  5  -56.095954816597    -1.264E+00 5.937E-02 3.832E+02
 ETOT  6  -56.226756088487    -1.308E-01 1.049E-02 3.638E+02
 ETOT  7  -56.389351999785    -1.626E-01 7.071E-03 1.273E+02
 ETOT  8  -56.294959011119     9.439E-02 3.071E-03 8.569E+00
 ETOT  9  -56.365459899602    -7.050E-02 3.765E-03 2.579E+01
 ETOT 10  -56.266401543474     9.906E-02 4.070E-03 6.807E+00
 ETOT 11  -56.286627046646    -2.023E-02 2.605E-03 1.987E+01
 ETOT 12  -56.269510222519     1.712E-02 1.799E-03 1.459E+01
 ETOT 13  -56.276834202185    -7.324E-03 1.179E-03 1.841E+01
 ETOT 14  -56.257683647239     1.915E-02 3.753E-04 5.477E+01
 ETOT 15  -56.263723162626    -6.040E-03 2.445E-03 3.227E+01
 ETOT 16  -56.321912220789    -5.819E-02 2.930E-03 2.383E+01
 ETOT 17  -56.354974540740    -3.306E-02 4.318E-04 2.049E+01
 ETOT 18  -56.390925793593    -3.595E-02 1.572E-04 2.202E+01
 ETOT 19  -56.371196529972     1.973E-02 6.138E-03 1.109E+01
 ETOT 20  -56.338161727529     3.303E-02 2.109E-03 3.952E+00
 ETOT 21  -56.295386541350     4.278E-02 8.274E-05 4.438E+00
 ETOT 22  -56.304916404067    -9.530E-03 5.044E-04 1.118E+01
 ETOT 23  -56.297463447867     7.453E-03 3.255E-04 2.229E+01
 ETOT 24  -56.304006529466    -6.543E-03 2.759E-05 2.531E+01
 ETOT 25  -56.291006636141     1.300E-02 1.273E-03 1.393E+00
 ETOT 26  -56.313136932474    -2.213E-02 4.412E-04 1.334E+00
 ETOT 27  -56.322498051455    -9.361E-03 3.593E-05 1.044E+00
 ETOT 28  -56.325501377283    -3.003E-03 1.234E-04 1.793E+00
 ETOT 29  -56.323821269644     1.680E-03 1.420E-05 1.004E+00
 ETOT 30  -56.311282038505     1.254E-02 6.065E-05 8.220E-01
 ETOT 31  -56.312534293466    -1.252E-03 2.993E-04 4.441E+00
 ETOT 32  -56.310660396971     1.874E-03 9.692E-05 3.162E-01
 ETOT 33  -56.309670745317     9.897E-04 1.190E-05 1.238E-01
 ETOT 34  -56.300883620744     8.787E-03 2.186E-05 8.148E-02
 ETOT 35  -56.300027196577     8.564E-04 1.174E-05 2.484E-02
 ETOT 36  -56.317898999185    -1.787E-02 2.488E-05 9.915E-02
 ETOT 37  -56.312848836705     5.050E-03 1.372E-05 8.431E-02
 ETOT 38  -56.312676933771     1.719E-04 9.023E-06 4.425E-02
 ETOT 39  -56.308489324444     4.188E-03 1.246E-05 1.703E-02
 ETOT 40  -56.309381982328    -8.927E-04 2.912E-05 5.425E-02
 ETOT 41  -56.312845934211    -3.464E-03 1.138E-05 9.987E-02
 ETOT 42  -56.310944955696     1.901E-03 5.620E-05 7.385E-02
 ETOT 43  -56.309080354622     1.865E-03 1.042E-05 4.509E-02
 ETOT 44  -56.315978290333    -6.898E-03 7.410E-06 1.755E-01
 ETOT 45  -56.309538403164     6.440E-03 3.985E-05 4.619E-02
 ETOT 46  -56.312491046446    -2.953E-03 8.557E-06 6.509E-02
 ETOT 47  -56.316095463447    -3.604E-03 8.511E-06 5.408E-02
 ETOT 48  -56.312319135223     3.776E-03 2.153E-05 2.340E-01
 ETOT 49  -56.314281769641    -1.963E-03 2.705E-05 9.444E-02
 ETOT 50  -56.317662882054    -3.381E-03 5.404E-06 2.830E-02
 ETOT 51  -56.319065332329    -1.402E-03 7.564E-06 8.252E-02
 ETOT 52  -56.315783542820     3.282E-03 4.036E-05 3.397E-02
 ETOT 53  -56.318016949234    -2.233E-03 7.916E-06 3.713E-01
 ETOT 54  -56.319059078972    -1.042E-03 4.074E-06 1.818E-01
 ETOT 55  -56.316534520485     2.525E-03 1.604E-05 1.053E-01
