TACC: Starting up job 1619952
TACC: Setting up parallel environment for MVAPICH2+mpispawn.
TACC: Starting parallel tasks...
 PAPI Version 84017152
 Number of hardware counters: 11
 Number of CPUs in an SMP Node: 8
 Number of nodes in the entire system: 2
 Total number of CPUs in the entire system: 16
 Model string of CPU: Intel(R) Xeon(R) CPU E5-2680 0 @ 2.70GHz
  ABINIT 
  
  Give name for formatted input file: 
BTO_structopt.in
  Give name for formatted output file:
BTO_structopt.out
  Give root name for generic input files:
in_structopt
  Give root name for generic output files:
out_structopt
  Give root name for generic temporary files:
/work/02288/mgs763/tmp/abinit/tmp
-P-0000  leave_test : synchronization done...

.Version 7.2.2 of ABINIT 
.(MPI version, prepared for a x86_64_linux_intel13.1 computer) 

.Copyright (C) 1998-2013 ABINIT group . 
 ABINIT comes with ABSOLUTELY NO WARRANTY.
 It is free software, and you are welcome to redistribute it
 under certain conditions (GNU General Public License,
 see ~abinit/COPYING or http://www.gnu.org/copyleft/gpl.txt).

 ABINIT is a project of the Universite Catholique de Louvain,
 Corning Inc. and other collaborators, see ~abinit/doc/developers/contributors.txt .
 Please read ~abinit/doc/users/acknowledgments.html for suggested
 acknowledgments of the ABINIT effort.
 For more information, see http://www.abinit.org .

.Starting date : Thu 29 Aug 2013.
- ( at 18h22 )
  
 
 ++++++++++++++++++++++++++++++++++++++++++++++++++++++++++++++++++++++++++++++
 
 === Build Information === 
  Version       : 7.2.2
  Build target  : x86_64_linux_intel13.1
  Build date    : 20130815
 
 === Compiler Suite === 
  C compiler       : intel13.1
  CFLAGS           :   -O3 -vec-report0
  C++ compiler     : gnu13.1
  CXXFLAGS         : -m64  -O3 -mtune=native -march=native
  Fortran compiler : intel13.1
  FCFLAGS          :   -extend-source -vec-report0 -noaltparam -nofpscomp  -openmp
  FC_LDFLAGS       :    -static-intel -static-libgcc
 
 === Optimizations === 
  Debug level        : no
  Optimization level : aggressive
  Architecture       : intel_xeon
 
 === MPI === 
  Parallel build : yes
  Parallel I/O   : yes
  Time tracing   : no
  GPU support    : no
 
 === Connectors / Fallbacks === 
  Connectors on : yes
  Fallbacks on  : yes
  DFT flavor    : libxc-fallback+wannier90-fallback
  FFT flavor    : fftw3-mpi
  LINALG flavor : mkl+scalapack
  MATH flavor   : gsl
  TIMER flavor  : papi
  TRIO flavor   : netcdf
 
 === Experimental features === 
  Bindings            : no
  Exports             : no
  GW double-precision : no
 
 ++++++++++++++++++++++++++++++++++++++++++++++++++++++++++++++++++++++++++++++
 

 ++++++++++++++++++++++++++++++++++++++++++++++++++++++++++++++++++++++++++++++
 Default optimizations:
   -O3 -xHOST


 ++++++++++++++++++++++++++++++++++++++++++++++++++++++++++++++++++++++++++++++


 ++++++++++++++++++++++++++++++++++++++++++++++++++++++++++++++++++++++++++++++
 CPP options activated during the build:

                  CC_INTEL                   CXX_GNU                  FC_INTEL

               HAVE_CCLOCK            HAVE_DFT_LIBXC        HAVE_DFT_WANNIER90

 HAVE_FC_ALLOCATABLE_DT...        HAVE_FC_CONTIGUOUS           HAVE_FC_CPUTIME

             HAVE_FC_ETIME              HAVE_FC_EXIT             HAVE_FC_FLUSH

             HAVE_FC_GAMMA            HAVE_FC_GETENV            HAVE_FC_GETPID

             HAVE_FC_IOMSG     HAVE_FC_ISO_C_BINDING        HAVE_FC_LONG_LINES

              HAVE_FC_NULL         HAVE_FC_STREAM_IO                  HAVE_FFT

            HAVE_FFT_FFTW3        HAVE_FFT_FFTW3_MPI    HAVE_FFT_FFTW3_THREADS

              HAVE_FFT_MPI           HAVE_FFT_SERIAL               HAVE_LINALG

         HAVE_LINALG_AXPBY        HAVE_LINALG_GEMM3M  HAVE_LINALG_MKL_IMATCOPY

   HAVE_LINALG_MKL_OMATADD  HAVE_LINALG_MKL_OMATCOPY           HAVE_LINALG_MPI

     HAVE_LINALG_SCALAPACK        HAVE_LINALG_SERIAL                 HAVE_MATH

             HAVE_MATH_GSL          HAVE_MATH_SERIAL                  HAVE_MPI

                 HAVE_MPI2               HAVE_MPI_IO HAVE_MPI_TYPE_CREATE_S...

         HAVE_OMP_COLLAPSE             HAVE_OS_LINUX                HAVE_TIMER

           HAVE_TIMER_PAPI         HAVE_TIMER_SERIAL          HAVE_TRIO_NETCDF

 ++++++++++++++++++++++++++++++++++++++++++++++++++++++++++++++++++++++++++++++

- input  file    -> BTO_structopt.in
- output file    -> BTO_structopt.out
- root for input  files -> in_structopt
- root for output files -> out_structopt

-instrng :    91 lines of input have been read from file BTO_structopt.in


 iofn2 : Please give name of formatted atomic psp file
 iofn2 : for atom type   1 , psp file is ../psps/56ba_LDA_TM.pspnc

 iofn2 : Please give name of formatted atomic psp file
 iofn2 : for atom type   2 , psp file is ../psps/22ti_LDA_TM.pspnc

 iofn2 : Please give name of formatted atomic psp file
 iofn2 : for atom type   3 , psp file is ../psps/8o_LDA_TM.pspnc
-P-0000   read the values zionpsp=  8.0 , pspcod=   1 , lmax=   2
-P-0000   read the values zionpsp=  4.0 , pspcod=   1 , lmax=   2
-P-0000   read the values zionpsp=  6.0 , pspcod=   1 , lmax=   1
-P-0000
-P-0000  inpspheads : deduce mpsang  =   3, n1xccc  =2501.
-P-0000  leave_test : synchronization done...

 invars1m : enter jdtset=     1
 invars1 : treat image number     1

 symlatt : the Bravais lattice is tP (primitive tetragonal)
  xred   is defined in input file
 ingeo : takes atomic coordinates from input array xred

 symlatt : the Bravais lattice is tP (primitive tetragonal)

 symlatt : the Bravais lattice is tP (primitive tetragonal)
 symspgr : the symmetry operation no.   1 is the identity
 symplanes : the symmetry operation no.   2 is a mirror plane
 symaxes : the symmetry operation no.   3 is a 2-axis
 symplanes : the symmetry operation no.   4 is a mirror plane
 symplanes : the symmetry operation no.   5 is a mirror plane
 symaxes : the symmetry operation no.   6 is a 4-axis
 symplanes : the symmetry operation no.   7 is a mirror plane
 symaxes : the symmetry operation no.   8 is a 4-axis
 symspgr : spgroup=  99  P4 m m   (=C4v^1)
 getkgrid : length of smallest supercell vector (bohr)=    5.986652E+01
       Simple Lattice Grid
 symkpt : found identity, with number  1
 invars2: take the default value of fband=  1.25000000E-01
 getkgrid : length of smallest supercell vector (bohr)=    5.986652E+01
       Simple Lattice Grid
 symkpt : found identity, with number  1
  dtset%nelect=   30.0000000000000     
 chkneu : initialized the occupation numbers for occopt=    1
    spin-unpolarized case :
  2.00  2.00  2.00  2.00  2.00  2.00  2.00  2.00  2.00  2.00  2.00  2.00
  2.00  2.00  2.00  0.00
  mpi_setup : enter 
 getmpw sequential formula gave:     4186

 Computing all possible proc distrib for this input with nproc less than     32
     npimage|       npkpt|    npspinor|       npfft|      npband|     bandpp |       nproc|      weight|
   1 ->    1|   1 ->   32|   1 ->    1|   1 ->   32|   1 ->   16|   1 ->    4|   2 ->   32|   1 ->   32|
           1|           8|           1|           4|           1|           1|          32|      28.52 |
           1|           8|           1|           2|           2|           1|          32|      28.52 |
           1|           8|           1|           1|           4|           1|          32|      28.52 |
           1|          10|           1|           3|           1|           1|          30|      27.40 |
           1|          16|           1|           2|           1|           1|          32|      25.92 |
npfft, npband, npspinor and npkpt:     4    1    1    8
 mpi_setup1: mkmem  undefined in the input file. Use default mkmem  = nkpt
 mpi_setup1: With nkpt_me=    5 and mkmem  =    40, ground state wf handled in core.
 Resetting mkmem  to nkpt_me to save memory space.
 mpi_setup1: mkqmem undefined in the input file. Use default mkqmem = nkpt
 mpi_setup1: With nkpt_me=    5 and mkqmem =    40, ground state wf handled in core.
 Resetting mkqmem to nkpt_me to save memory space.
 mpi_setup1: mk1mem undefined in the input file. Use default mk1mem = nkpt
 mpi_setup1: With nkpt_me=    5 and mk1mem =    40, ground state wf handled in core.
 Resetting mk1mem to nkpt_me to save memory space.

 getng.F90:199:WARNING
   The second and third dimension of the FFT grid,    0    0  were imposed to be multiple of the number of processors for the FFT,    4
 For input ecut=  3.500000E+01 best grid ngfft=      40      40      48
       max ecut=  3.524858E+01

 ==== FFT mesh ====
  FFT mesh divisions ........................    40   40   48
  Augmented FFT divisions ...................    41   41   48
  FFT algorithm .............................   401
  FFT cache size ............................    16
 Relative gap for number of plane waves between process:     0.07
 Relative gap for number of plane waves between process:     0.06
 Relative gap for number of plane waves between process:     0.05
 Relative gap for number of plane waves between process:     0.06
 Relative gap for number of plane waves between process:     0.05
 Relative gap for number of plane waves between process:     0.05
 Relative gap for number of plane waves between process:     0.06
 Relative gap for number of plane waves between process:     0.05
 Relative gap for number of plane waves between process:     0.04
 Relative gap for number of plane waves between process:     0.02
 Relative gap for number of plane waves between process:     0.06
 Relative gap for number of plane waves between process:     0.05
 Relative gap for number of plane waves between process:     0.06
 Relative gap for number of plane waves between process:     0.06
 Relative gap for number of plane waves between process:     0.05
 Relative gap for number of plane waves between process:     0.05
 Relative gap for number of plane waves between process:     0.05
 Relative gap for number of plane waves between process:     0.05
 Relative gap for number of plane waves between process:     0.04
 Relative gap for number of plane waves between process:     0.02
 Relative gap for number of plane waves between process:     0.05
 Relative gap for number of plane waves between process:     0.06
 Relative gap for number of plane waves between process:     0.06
 Relative gap for number of plane waves between process:     0.05
 Relative gap for number of plane waves between process:     0.05
 Relative gap for number of plane waves between process:     0.04
 Relative gap for number of plane waves between process:     0.04
 Relative gap for number of plane waves between process:     0.04
 Relative gap for number of plane waves between process:     0.04
 Relative gap for number of plane waves between process:     0.04
 Relative gap for number of plane waves between process:     0.06
 Relative gap for number of plane waves between process:     0.06
 Relative gap for number of plane waves between process:     0.05
 Relative gap for number of plane waves between process:     0.05
 Relative gap for number of plane waves between process:     0.05
 Relative gap for number of plane waves between process:     0.04
 Relative gap for number of plane waves between process:     0.04
 Relative gap for number of plane waves between process:     0.04
 Relative gap for number of plane waves between process:     0.04
 Relative gap for number of plane waves between process:     0.04
 getmpw: optimal value of mpw=    1077

 DATASET    1 : space group P4 m m (# 99); Bravais tP (primitive tetrag.)

 getdim_nloc : deduce lmnmax  =   8, lnmax  =   2,
                      lmnmaxso=   8, lnmaxso=   2.
 setmqgrid : COMMENT -
  The number of points "mqgrid" in reciprocal space used for the
  description of the pseudopotentials has been set automatically
  by abinit to :     3001.
 memory : analysis of memory needs
================================================================================
 Values of the parameters that define the memory need for DATASET  1.
   intxc =         0  ionmov =         2    iscf =         7 xclevel =         1
  lmnmax =         2   lnmax =         2   mband =        16  mffmem =         1
P  mgfft =        48   mkmem =         5 mpssoang=         3     mpw =      1077
  mqgrid =      3001   natom =         5    nfft =     19200    nkpt =        40
  nloalg =         4  nspden =         1 nspinor =         1  nsppol =         1
    nsym =         8  n1xccc =      2501  ntypat =         3  occopt =         1
================================================================================
P This job should need less than                      10.596 Mbytes of memory.
  Rough estimation (10% accuracy) of disk space for files :
_ WF disk file :     42.072 Mbytes ; DEN or POT disk file :      0.148 Mbytes.
================================================================================

 Biggest array : f_fftgr(disk), with      2.3458 MBytes.
-P-0000  leave_test : synchronization done...
 memana : allocated an array of      2.346 Mbytes, for testing purposes.
 memana : allocated      10.596 Mbytes, for testing purposes.
 The job will continue.
--------------------------------------------------------------------------------
------------- Echo of variables that govern the present computation ------------
--------------------------------------------------------------------------------
-
- outvars: echo of selected default values                                      
-   accesswff0 =  0 , fftalg0 =312 , wfoptalg0 =  0
-
- outvars: echo of global parameters not present in the input file              
-  max_nthreads =    1
-
 -outvars: echo values of preprocessed input variables --------
        accesswff           1
            acell      7.4833154862E+00  7.4833154862E+00  7.5589045315E+00 Bohr
              amu      1.37327000E+02  4.78800000E+01  1.59994000E+01
           diemac      4.00000000E+03
             ecut      3.50000000E+01 Hartree
           fftalg         401
      fft_opt_lob           2
           iatfix        1
           ionmov           2
           iprcch           6
           jdtset        1
              kpt      6.25000000E-02  6.25000000E-02  6.25000000E-02
                       1.87500000E-01  6.25000000E-02  6.25000000E-02
                       3.12500000E-01  6.25000000E-02  6.25000000E-02
                       4.37500000E-01  6.25000000E-02  6.25000000E-02
                       1.87500000E-01  1.87500000E-01  6.25000000E-02
                       3.12500000E-01  1.87500000E-01  6.25000000E-02
                       4.37500000E-01  1.87500000E-01  6.25000000E-02
                       3.12500000E-01  3.12500000E-01  6.25000000E-02
                       4.37500000E-01  3.12500000E-01  6.25000000E-02
                       4.37500000E-01  4.37500000E-01  6.25000000E-02
                       6.25000000E-02  6.25000000E-02  1.87500000E-01
                       1.87500000E-01  6.25000000E-02  1.87500000E-01
                       3.12500000E-01  6.25000000E-02  1.87500000E-01
                       4.37500000E-01  6.25000000E-02  1.87500000E-01
                       1.87500000E-01  1.87500000E-01  1.87500000E-01
                       3.12500000E-01  1.87500000E-01  1.87500000E-01
                       4.37500000E-01  1.87500000E-01  1.87500000E-01
                       3.12500000E-01  3.12500000E-01  1.87500000E-01
                       4.37500000E-01  3.12500000E-01  1.87500000E-01
                       4.37500000E-01  4.37500000E-01  1.87500000E-01
                       6.25000000E-02  6.25000000E-02  3.12500000E-01
                       1.87500000E-01  6.25000000E-02  3.12500000E-01
                       3.12500000E-01  6.25000000E-02  3.12500000E-01
                       4.37500000E-01  6.25000000E-02  3.12500000E-01
                       1.87500000E-01  1.87500000E-01  3.12500000E-01
                       3.12500000E-01  1.87500000E-01  3.12500000E-01
                       4.37500000E-01  1.87500000E-01  3.12500000E-01
                       3.12500000E-01  3.12500000E-01  3.12500000E-01
                       4.37500000E-01  3.12500000E-01  3.12500000E-01
                       4.37500000E-01  4.37500000E-01  3.12500000E-01
                       6.25000000E-02  6.25000000E-02  4.37500000E-01
                       1.87500000E-01  6.25000000E-02  4.37500000E-01
                       3.12500000E-01  6.25000000E-02  4.37500000E-01
                       4.37500000E-01  6.25000000E-02  4.37500000E-01
                       1.87500000E-01  1.87500000E-01  4.37500000E-01
                       3.12500000E-01  1.87500000E-01  4.37500000E-01
                       4.37500000E-01  1.87500000E-01  4.37500000E-01
                       3.12500000E-01  3.12500000E-01  4.37500000E-01
                       4.37500000E-01  3.12500000E-01  4.37500000E-01
                       4.37500000E-01  4.37500000E-01  4.37500000E-01
         kptrlatt        8    0    0      0    8    0      0    0    8
          kptrlen      5.98665239E+01
P           mkmem           5
           natfix           1
            natom           5
            nband          16
           ndtset           1
            ngfft          40      40      48
             nkpt          40
            npfft           4
-           npkpt           8
            nstep         100
             nsym           8
            ntime          40
           ntypat           3
              occ      2.000000  2.000000  2.000000  2.000000  2.000000  2.000000
                       2.000000  2.000000  2.000000  2.000000  2.000000  2.000000
                       2.000000  2.000000  2.000000  0.000000
           ortalg          -2
        paral_kgb           1
           prteig           0
           shiftk      5.00000000E-01  5.00000000E-01  5.00000000E-01
          spgroup          99
           symrel      1  0  0   0  1  0   0  0  1       1  0  0   0 -1  0   0  0  1
                      -1  0  0   0 -1  0   0  0  1      -1  0  0   0  1  0   0  0  1
                       0  1  0   1  0  0   0  0  1       0  1  0  -1  0  0   0  0  1
                       0 -1  0  -1  0  0   0  0  1       0 -1  0   1  0  0   0  0  1
           toldfe      7.00000000E-08 Hartree
           tolmxf      1.00000000E-04
            typat      1  2  3  3  3
         wfoptalg          14
              wtk        0.01563    0.03125    0.03125    0.03125    0.01563    0.03125
                         0.03125    0.01563    0.03125    0.01563    0.01563    0.03125
                         0.03125    0.03125    0.01563    0.03125    0.03125    0.01563
                         0.03125    0.01563    0.01563    0.03125    0.03125    0.03125
                         0.01563    0.03125    0.03125    0.01563    0.03125    0.01563
                         0.01563    0.03125    0.03125    0.03125    0.01563    0.03125
                         0.03125    0.01563    0.03125    0.01563
           xangst      0.0000000000E+00  0.0000000000E+00  0.0000000000E+00
                       1.9800000000E+00  1.9800000000E+00  2.0600000000E+00
                       0.0000000000E+00  1.9800000000E+00  1.9400000000E+00
                       1.9800000000E+00  0.0000000000E+00  1.9400000000E+00
                       1.9800000000E+00  1.9800000000E+00 -1.2000000000E-01
            xcart      0.0000000000E+00  0.0000000000E+00  0.0000000000E+00
                       3.7416577431E+00  3.7416577431E+00  3.8928358337E+00
                       0.0000000000E+00  3.7416577431E+00  3.6660686978E+00
                       3.7416577431E+00  0.0000000000E+00  3.6660686978E+00
                       3.7416577431E+00  3.7416577431E+00 -2.2676713595E-01
             xred      0.0000000000E+00  0.0000000000E+00  0.0000000000E+00
                       5.0000000000E-01  5.0000000000E-01  5.1500000000E-01
                       0.0000000000E+00  5.0000000000E-01  4.8500000000E-01
                       5.0000000000E-01  0.0000000000E+00  4.8500000000E-01
                       5.0000000000E-01  5.0000000000E-01 -3.0000000000E-02
            znucl       56.00000   22.00000    8.00000

================================================================================
-P-0000  leave_test : synchronization done...

 chkinp: machine precision is   2.2204460492503131E-16

 chkinp: Checking input parameters for consistency, jdtset=   1.
 DATA TYPE INFORMATION: 
 REAL:      Data type name: REAL(DP) 
            Kind value:      8
            Precision:      15
            Smallest nonnegligible quantity relative to 1:  0.22204460E-15
            Smallest positive number:                       0.22250739-307
            Largest representable number:                   0.17976931+309
 INTEGER:   Data type name: INTEGER(default) 
            Kind value: 4
            Bit size:   32
            Largest representable number: 2147483647
 LOGICAL:   Data type name: LOGICAL 
            Kind value: 4
 CHARACTER: Data type name: CHARACTER             Kind value: 1
 ==== OpenMP parallelism is ON ====
-  Max_threads :        1
-   Num_procs :         1
-   Dynamic :           F
-   Nested :            F
 
  ==== Using MPI-2 specifications ==== 
  MPI-IO support is ON
  xmpi_tag_ub ................   1073741823
  xmpi_bsize_ch ..............            1
  xmpi_bsize_int .............            4
  xmpi_bsize_sp ..............            4
  xmpi_bsize_dp ..............            8
  xmpi_bsize_spc .............            8
  xmpi_bsize_dpc .............           16
  xmpio_bsize_frm ............            4
  xmpi_address_kind ..........            8
  xmpi_offset_kind ...........            8
  MPI_WTICK ..................   1.000000000000000E-006
-P-0000
-P-0000 ================================================================================
-P-0000 == DATASET  1 ==================================================================
-P-0000 -   nproc =   32
-P-0000
 setmqgrid : COMMENT -
  The number of points "mqgrid" in reciprocal space used for the
  description of the pseudopotentials has been set automatically
  by abinit to :     3001.

 getdim_nloc : deduce lmnmax  =   8, lnmax  =   2,
                      lmnmaxso=   8, lnmaxso=   2.
 Exchange-correlation functional for the present dataset will be:
  LDA: new Teter (4/93) with spin-polarized option - ixc=1
 Citation for XC functional:
  S. Goedecker, M. Teter, J. Huetter, PRB 54, 1703 (1996)
 
 Unit cell volume ucvol=  4.2329873E+02 bohr^3
 Angles (23,13,12)=  9.00000000E+01  9.00000000E+01  9.00000000E+01 degrees

 getcut: wavevector=  0.0000  0.0000  0.0000  ngfft=  40  40  48
         ecut(hartree)=     35.000   => boxcut(ratio)=   2.00709
 Relative gap for number of plane waves between process:     0.07
 Relative gap for number of plane waves between process:     0.06
 Relative gap for number of plane waves between process:     0.05
 Relative gap for number of plane waves between process:     0.06
 Relative gap for number of plane waves between process:     0.05
 kpgio: loop on k-points done in parallel
- pspini: atom type   1  psp file is ../psps/56ba_LDA_TM.pspnc
- pspatm: opening atomic psp file    ../psps/56ba_LDA_TM.pspnc
-  Troullier-Martins psp for element  Ba        Thu Oct 27 17:45:27 EDT 1994
- 56.00000   8.00000    940714                znucl, zion, pspdat
    1    1    2    0      2001   0.00000      pspcod,pspxc,lmax,lloc,mmax,r2well
    0   3.136   6.531    0   3.3606525        l,e99.0,e99.9,nproj,rcpsp
   0.00000000   0.00000000   0.00000000   0.00000000     rms, ekb1, ekb2, epsatm
    1   3.684   8.871    1   2.4896211        l,e99.0,e99.9,nproj,rcpsp
   0.00000000   0.00000000   0.00000000   0.00000000     rms, ekb1, ekb2, epsatm
    2   4.356   5.823    1   2.7860712        l,e99.0,e99.9,nproj,rcpsp
   0.00000000   0.00000000   0.00000000   0.00000000     rms, ekb1, ekb2, epsatm
    2.29351246205421    0.45434617287240    4.78340519141650   rchrg,fchrg,qchrg
 pspatm: epsatm=  174.17887550
         --- l  ekb(1:nproj) -->
             1   -2.337834
             2   -1.872976
 pspatm: atomic psp has been read  and splines computed

- pspini: atom type   2  psp file is ../psps/22ti_LDA_TM.pspnc
- pspatm: opening atomic psp file    ../psps/22ti_LDA_TM.pspnc
-  Troullier-Martins psp for element  Ti        Thu Oct 27 17:33:40 EDT 1994
- 22.00000   4.00000    940714                znucl, zion, pspdat
    1    1    2    0      2001   0.00000      pspcod,pspxc,lmax,lloc,mmax,r2well
    0   5.166   8.509    0   2.4203472        l,e99.0,e99.9,nproj,rcpsp
   0.00000000   0.00000000   0.00000000   0.00000000     rms, ekb1, ekb2, epsatm
    1   2.285   3.944    1   2.9934301        l,e99.0,e99.9,nproj,rcpsp
   0.00000000   0.00000000   0.00000000   0.00000000     rms, ekb1, ekb2, epsatm
    2  20.947  27.069    1   1.9326638        l,e99.0,e99.9,nproj,rcpsp
   0.00000000   0.00000000   0.00000000   0.00000000     rms, ekb1, ekb2, epsatm
    2.82741504495369    0.09256629068341    1.82586447305099   rchrg,fchrg,qchrg
 pspatm: epsatm=   66.67453488
         --- l  ekb(1:nproj) -->
             1    0.915537
             2   -8.015692
 pspatm: atomic psp has been read  and splines computed

- pspini: atom type   3  psp file is ../psps/8o_LDA_TM.pspnc
- pspatm: opening atomic psp file    ../psps/8o_LDA_TM.pspnc
-  Troullier-Martins psp for element  O         Thu Oct 27 17:29:57 EDT 1994
-  8.00000   6.00000    940714                znucl, zion, pspdat
    1    1    1    1      2001   0.00000      pspcod,pspxc,lmax,lloc,mmax,r2well
    0   5.480  16.893    1   1.4482335        l,e99.0,e99.9,nproj,rcpsp
   0.00000000   0.00000000   0.00000000   0.00000000     rms, ekb1, ekb2, epsatm
    1  20.911  28.075    0   1.4482335        l,e99.0,e99.9,nproj,rcpsp
   0.00000000   0.00000000   0.00000000   0.00000000     rms, ekb1, ekb2, epsatm
    0.56990156784787    3.95561236318184    0.63894027514378   rchrg,fchrg,qchrg
 pspatm: epsatm=    1.57752239
         --- l  ekb(1:nproj) -->
             0    5.670783
 pspatm: atomic psp has been read  and splines computed

   7.36757933E+03                                ecore*ucvol(ha*bohr**3)
 symatm: atom number     1 is reached starting at atom
   1  1  1  1  1  1  1  1
 symatm: atom number     2 is reached starting at atom
   2  2  2  2  2  2  2  2
 symatm: atom number     3 is reached starting at atom
   3  3  3  3  4  4  4  4
 symatm: atom number     4 is reached starting at atom
   4  4  4  4  3  3  3  3
 symatm: atom number     5 is reached starting at atom
   5  5  5  5  5  5  5  5
-P-0000  wfconv:    16 bands initialized randomly with npw=  1066, for ikpt=     1
-P-0000  wfconv:    16 bands initialized randomly with npw=  1067, for ikpt=     2
-P-0000  wfconv:    16 bands initialized randomly with npw=  1065, for ikpt=     3
-P-0000  wfconv:    16 bands initialized randomly with npw=  1073, for ikpt=     4
-P-0000  wfconv:    16 bands initialized randomly with npw=  1061, for ikpt=     5
-P-0000  leave_test : synchronization done...
 pareigocc : MPI_ALLREDUCE
 
_setup2: Arith. and geom. avg. npw (full set) are    1067.609    1067.601
 initro : for itypat=  1, take decay length=      1.0000,
 initro : indeed, coreel=     48.0000, nval=  8 and densty=  0.0000E+00.
 initro : for itypat=  2, take decay length=      1.2000,
 initro : indeed, coreel=     18.0000, nval=  4 and densty=  0.0000E+00.
 initro : for itypat=  3, take decay length=      0.5000,
 initro : indeed, coreel=      2.0000, nval=  6 and densty=  0.0000E+00.

================================================================================
 Could no open out_structopt_DS1_HIST, starting from scratch

=== [ionmov= 2] Broyden-Fletcher-Goldfard-Shanno method (forces)            
================================================================================

--- Iteration: ( 1/40) Internal Cycle: (1/1)
--------------------------------------------------------------------------------

 Cartesian coordinates (xcart) [bohr]
  0.00000000000000E+00  0.00000000000000E+00  0.00000000000000E+00
  3.74165774311357E+00  3.74165774311357E+00  3.89283583374442E+00
  0.00000000000000E+00  3.74165774311357E+00  3.66606869779815E+00
  3.74165774311357E+00  0.00000000000000E+00  3.66606869779815E+00
  3.74165774311357E+00  3.74165774311357E+00 -2.26767135946277E-01
 Reduced coordinates (xred)
  0.00000000000000E+00  0.00000000000000E+00  0.00000000000000E+00
  5.00000000000000E-01  5.00000000000000E-01  5.15000000000000E-01
  0.00000000000000E+00  5.00000000000000E-01  4.85000000000000E-01
  5.00000000000000E-01  0.00000000000000E+00  4.85000000000000E-01
  5.00000000000000E-01  5.00000000000000E-01 -3.00000000000000E-02

---SELF-CONSISTENT-FIELD CONVERGENCE--------------------------------------------

 getcut: wavevector=  0.0000  0.0000  0.0000  ngfft=  40  40  48
         ecut(hartree)=     35.000   => boxcut(ratio)=   2.00709

 ewald : nr and ng are    3 and   15

 ITER STEP NUMBER     1
 vtorho : nnsclo_now=  2, note that nnsclo,dbl_nnsclo,istep=  0 0  1
-P-0000  leave_test : synchronization done...
 vtorho: loop on k-points and spins done in parallel
 Total charge density [el/Bohr^3]
,     Maximum=    1.0225E+00  at reduced coord.    0.5000    0.0000    0.1667
,     Minimum=    7.6320E-04  at reduced coord.    0.5000    0.5000    0.0208
,  Integrated=    3.0000E+01
 ETOT  1  -71.481893944935    -7.148E+01 3.253E-02 4.427E+02
 scprqt: <Vxc>= -4.2748985E-01 hartree

Simple mixing update:
  residual square of the potential :   122.219416019333

 ITER STEP NUMBER     2
 vtorho : nnsclo_now=  2, note that nnsclo,dbl_nnsclo,istep=  0 0  2
-P-0000  leave_test : synchronization done...
 vtorho: loop on k-points and spins done in parallel
 Total charge density [el/Bohr^3]
,     Maximum=    8.8393E-01  at reduced coord.    0.5000    0.0000    0.1667
,     Minimum=    3.2384E-05  at reduced coord.    0.0000    0.0000    0.0000
,  Integrated=    3.0000E+01
 ETOT  2  -71.325204602891     1.567E-01 8.830E-03 1.353E+03
 scprqt: <Vxc>= -4.3339306E-01 hartree

 Pulay update with  1 previous iterations:
 mixing of old trial potential : alpha(m:m-4)=  0.112      0.888

 ITER STEP NUMBER     3
 vtorho : nnsclo_now=  1, note that nnsclo,dbl_nnsclo,istep=  0 0  3
-P-0000  leave_test : synchronization done...
 vtorho: loop on k-points and spins done in parallel
 Total charge density [el/Bohr^3]
,     Maximum=    8.9106E-01  at reduced coord.    0.5000    0.0000    0.1667
,     Minimum=    2.3100E-05  at reduced coord.    0.0000    0.0000    0.0000
,  Integrated=    3.0000E+01
 ETOT  3  -71.479565189288    -1.544E-01 1.185E-03 7.382E+02
 scprqt: <Vxc>= -4.3344232E-01 hartree

 Pulay update with  2 previous iterations:
 mixing of old trial potential : alpha(m:m-4)=   3.40      -2.54      0.147

 ITER STEP NUMBER     4
 vtorho : nnsclo_now=  1, note that nnsclo,dbl_nnsclo,istep=  0 0  4
-P-0000  leave_test : synchronization done...
 vtorho: loop on k-points and spins done in parallel
 Total charge density [el/Bohr^3]
,     Maximum=    1.0287E+00  at reduced coord.    0.5000    0.0000    0.1667
,     Minimum=    3.2371E-05  at reduced coord.    0.0000    0.0000    0.0000
,  Integrated=    3.0000E+01
 ETOT  4  -71.658567101098    -1.790E-01 4.759E-04 1.312E+02
 scprqt: <Vxc>= -4.2745644E-01 hartree

 Pulay update with  3 previous iterations:
 mixing of old trial potential : alpha(m:m-4)=  0.375       2.50      -1.78     -0.921E-01

 ITER STEP NUMBER     5
 vtorho : nnsclo_now=  1, note that nnsclo,dbl_nnsclo,istep=  0 0  5
-P-0000  leave_test : synchronization done...
 vtorho: loop on k-points and spins done in parallel
 Total charge density [el/Bohr^3]
,     Maximum=    9.9684E-01  at reduced coord.    0.5000    0.0000    0.1667
,     Minimum=    2.1772E-05  at reduced coord.    0.0000    0.0000    0.0000
,  Integrated=    3.0000E+01
 ETOT  5  -71.681840208560    -2.327E-02 2.836E-04 8.444E+01
 scprqt: <Vxc>= -4.2920880E-01 hartree

 Pulay update with  4 previous iterations:
 mixing of old trial potential : alpha(m:m-4)=  0.853     -0.310      0.984     -0.575      0.477E-01

 ITER STEP NUMBER     6
 vtorho : nnsclo_now=  1, note that nnsclo,dbl_nnsclo,istep=  0 0  6
-P-0000  leave_test : synchronization done...
 vtorho: loop on k-points and spins done in parallel
 Total charge density [el/Bohr^3]
,     Maximum=    9.9301E-01  at reduced coord.    0.4750    0.5500    0.1875
,     Minimum=    1.9283E-05  at reduced coord.    0.0000    0.0000    0.0000
,  Integrated=    3.0000E+01
 ETOT  6  -71.692071990872    -1.023E-02 2.233E-04 3.846E+01
 scprqt: <Vxc>= -4.2922985E-01 hartree

 Pulay update with  5 previous iterations:
 mixing of old trial potential : alpha(m:m-4)=  0.569       1.10     -0.729     -0.853      0.878

 ITER STEP NUMBER     7
 vtorho : nnsclo_now=  1, note that nnsclo,dbl_nnsclo,istep=  0 0  7
-P-0000  leave_test : synchronization done...
 vtorho: loop on k-points and spins done in parallel
 Total charge density [el/Bohr^3]
,     Maximum=    9.6296E-01  at reduced coord.    0.4750    0.5500    0.1875
,     Minimum=    2.0559E-05  at reduced coord.    0.0000    0.0000    0.0000
,  Integrated=    3.0000E+01
 ETOT  7  -71.706746980663    -1.467E-02 2.282E-04 3.984E+00
 scprqt: <Vxc>= -4.3104039E-01 hartree

 Pulay update with  6 previous iterations:
 mixing of old trial potential : alpha(m:m-4)=   1.15     -0.473      0.352      0.450E-01 -0.539

 ITER STEP NUMBER     8
 vtorho : nnsclo_now=  1, note that nnsclo,dbl_nnsclo,istep=  0 0  8
-P-0000  leave_test : synchronization done...
 vtorho: loop on k-points and spins done in parallel
 Total charge density [el/Bohr^3]
,     Maximum=    9.5468E-01  at reduced coord.    0.4750    0.5500    0.1875
,     Minimum=    1.9554E-05  at reduced coord.    0.0000    0.0000    0.0000
,  Integrated=    3.0000E+01
 ETOT  8  -71.706975275093    -2.283E-04 1.495E-04 4.875E+00
 scprqt: <Vxc>= -4.3089718E-01 hartree

 Pulay update with  7 previous iterations:
 mixing of old trial potential : alpha(m:m-4)=  0.874      0.537E-01 -0.138      0.316     -0.906E-01

 ITER STEP NUMBER     9
 vtorho : nnsclo_now=  1, note that nnsclo,dbl_nnsclo,istep=  0 0  9
-P-0000  leave_test : synchronization done...
 vtorho: loop on k-points and spins done in parallel
 Total charge density [el/Bohr^3]
,     Maximum=    9.5608E-01  at reduced coord.    0.5000    0.0000    0.1667
,     Minimum=    2.0287E-05  at reduced coord.    0.0000    0.0000    0.0000
,  Integrated=    3.0000E+01
 ETOT  9  -71.708221738029    -1.246E-03 1.842E-04 3.456E-01
 scprqt: <Vxc>= -4.3089106E-01 hartree

 Pulay update with  7 previous iterations:
 mixing of old trial potential : alpha(m:m-4)=  0.656      0.316     -0.777E-02 -0.109      0.175

 ITER STEP NUMBER    10
 vtorho : nnsclo_now=  1, note that nnsclo,dbl_nnsclo,istep=  0 0 10
-P-0000  leave_test : synchronization done...
 vtorho: loop on k-points and spins done in parallel
 Total charge density [el/Bohr^3]
,     Maximum=    9.6039E-01  at reduced coord.    0.5000    0.0000    0.1667
,     Minimum=    1.9895E-05  at reduced coord.    0.0000    0.0000    0.0000
,  Integrated=    3.0000E+01
 ETOT 10  -71.708236464166    -1.473E-05 1.054E-04 4.187E-01
 scprqt: <Vxc>= -4.3070632E-01 hartree

 Pulay update with  7 previous iterations:
 mixing of old trial potential : alpha(m:m-4)=  0.499      0.349      0.194     -0.206E-01 -0.115

 ITER STEP NUMBER    11
 vtorho : nnsclo_now=  1, note that nnsclo,dbl_nnsclo,istep=  0 0 11
-P-0000  leave_test : synchronization done...
 vtorho: loop on k-points and spins done in parallel
 Total charge density [el/Bohr^3]
,     Maximum=    9.5924E-01  at reduced coord.    0.5000    0.0000    0.1667
,     Minimum=    2.0363E-05  at reduced coord.    0.0000    0.0000    0.0000
,  Integrated=    3.0000E+01
 ETOT 11  -71.708310617595    -7.415E-05 1.619E-04 3.155E-01
 scprqt: <Vxc>= -4.3079677E-01 hartree

 Pulay update with  7 previous iterations:
 mixing of old trial potential : alpha(m:m-4)=  0.995     -0.329      0.126      0.228     -0.191E-01

 ITER STEP NUMBER    12
 vtorho : nnsclo_now=  1, note that nnsclo,dbl_nnsclo,istep=  0 0 12
-P-0000  leave_test : synchronization done...
 vtorho: loop on k-points and spins done in parallel
 Total charge density [el/Bohr^3]
,     Maximum=    9.5932E-01  at reduced coord.    0.5000    0.0000    0.1667
,     Minimum=    2.0330E-05  at reduced coord.    0.0000    0.0000    0.0000
,  Integrated=    3.0000E+01
 ETOT 12  -71.708377074006    -6.646E-05 8.522E-05 6.102E-02
 scprqt: <Vxc>= -4.3082051E-01 hartree

 Pulay update with  7 previous iterations:
 mixing of old trial potential : alpha(m:m-4)=  0.826      0.482     -0.550      0.108      0.131

 ITER STEP NUMBER    13
 vtorho : nnsclo_now=  1, note that nnsclo,dbl_nnsclo,istep=  0 0 13
-P-0000  leave_test : synchronization done...
 vtorho: loop on k-points and spins done in parallel
 Total charge density [el/Bohr^3]
,     Maximum=    9.5855E-01  at reduced coord.    0.5000    0.0000    0.1667
,     Minimum=    2.0428E-05  at reduced coord.    0.0000    0.0000    0.0000
,  Integrated=    3.0000E+01
 ETOT 13  -71.708396901977    -1.983E-05 1.318E-04 2.350E-03
 scprqt: <Vxc>= -4.3085223E-01 hartree

 Pulay update with  7 previous iterations:
 mixing of old trial potential : alpha(m:m-4)=   1.31     -0.218      0.207     -0.218     -0.120

 ITER STEP NUMBER    14
 vtorho : nnsclo_now=  1, note that nnsclo,dbl_nnsclo,istep=  0 0 14
-P-0000  leave_test : synchronization done...
 vtorho: loop on k-points and spins done in parallel
 Total charge density [el/Bohr^3]
,     Maximum=    9.5853E-01  at reduced coord.    0.5000    0.0000    0.1667
,     Minimum=    2.0379E-05  at reduced coord.    0.0000    0.0000    0.0000
,  Integrated=    3.0000E+01
 ETOT 14  -71.708394378040     2.524E-06 6.641E-05 1.710E-02
 scprqt: <Vxc>= -4.3085637E-01 hartree

 Pulay update with  7 previous iterations:
 mixing of old trial potential : alpha(m:m-4)=  0.701      0.406     -0.243      0.254     -0.567E-01

 ITER STEP NUMBER    15
 vtorho : nnsclo_now=  1, note that nnsclo,dbl_nnsclo,istep=  0 0 15
-P-0000  leave_test : synchronization done...
 vtorho: loop on k-points and spins done in parallel
 Total charge density [el/Bohr^3]
,     Maximum=    9.5859E-01  at reduced coord.    0.5000    0.0000    0.1667
,     Minimum=    2.0424E-05  at reduced coord.    0.0000    0.0000    0.0000
,  Integrated=    3.0000E+01
 ETOT 15  -71.708397050000    -2.672E-06 9.849E-05 4.938E-03
 scprqt: <Vxc>= -4.3085640E-01 hartree

 Pulay update with  7 previous iterations:
 mixing of old trial potential : alpha(m:m-4)=  0.732      0.109      0.149     -0.120      0.217

 ITER STEP NUMBER    16
 vtorho : nnsclo_now=  1, note that nnsclo,dbl_nnsclo,istep=  0 0 16
-P-0000  leave_test : synchronization done...
 vtorho: loop on k-points and spins done in parallel
 Total charge density [el/Bohr^3]
,     Maximum=    9.5868E-01  at reduced coord.    0.5000    0.0000    0.1667
,     Minimum=    2.0405E-05  at reduced coord.    0.0000    0.0000    0.0000
,  Integrated=    3.0000E+01
 ETOT 16  -71.708398185363    -1.135E-06 4.872E-05 9.745E-04
 scprqt: <Vxc>= -4.3085282E-01 hartree

 Pulay update with  7 previous iterations:
 mixing of old trial potential : alpha(m:m-4)=   1.30     -0.325      0.441E-01  0.313E-01 -0.173

 ITER STEP NUMBER    17
 vtorho : nnsclo_now=  1, note that nnsclo,dbl_nnsclo,istep=  0 0 17
-P-0000  leave_test : synchronization done...
 vtorho: loop on k-points and spins done in parallel
 Total charge density [el/Bohr^3]
,     Maximum=    9.5873E-01  at reduced coord.    0.5000    0.0000    0.1667
,     Minimum=    2.0420E-05  at reduced coord.    0.0000    0.0000    0.0000
,  Integrated=    3.0000E+01
 ETOT 17  -71.708398384953    -1.996E-07 6.983E-05 1.214E-04
 scprqt: <Vxc>= -4.3085085E-01 hartree

 Pulay update with  7 previous iterations:
 mixing of old trial potential : alpha(m:m-4)=  0.669      0.477     -0.287      0.137      0.729E-01

 ITER STEP NUMBER    18
 vtorho : nnsclo_now=  1, note that nnsclo,dbl_nnsclo,istep=  0 0 18
-P-0000  leave_test : synchronization done...
 vtorho: loop on k-points and spins done in parallel
 Total charge density [el/Bohr^3]
,     Maximum=    9.5869E-01  at reduced coord.    0.5000    0.0000    0.1667
,     Minimum=    2.0418E-05  at reduced coord.    0.0000    0.0000    0.0000
,  Integrated=    3.0000E+01
 ETOT 18  -71.708398438083    -5.313E-08 3.426E-05 3.223E-05
 scprqt: <Vxc>= -4.3085152E-01 hartree

 Pulay update with  7 previous iterations:
 mixing of old trial potential : alpha(m:m-4)=   1.56     -0.389     -0.197      0.131     -0.145

 ITER STEP NUMBER    19
 vtorho : nnsclo_now=  1, note that nnsclo,dbl_nnsclo,istep=  0 0 19
-P-0000  leave_test : synchronization done...
 vtorho: loop on k-points and spins done in parallel
 Total charge density [el/Bohr^3]
,     Maximum=    9.5866E-01  at reduced coord.    0.5000    0.0000    0.1667
,     Minimum=    2.0420E-05  at reduced coord.    0.0000    0.0000    0.0000
,  Integrated=    3.0000E+01
 ETOT 19  -71.708398444206    -6.123E-09 5.087E-05 3.064E-05
 scprqt: <Vxc>= -4.3085284E-01 hartree

 At SCF step   19, etot is converged : 
  for the second time, diff in etot=  6.123E-09 < toldfe=  7.000E-08
forstrnps: loop on k-points and spins done in parallel
-P-0000  leave_test : synchronization done...
-P-0000  leave_test : synchronization done...
  strhar : before mpi_comm, harstr=  4.840613877110481E-002
  3.552277161336207E-002  4.904035423920625E-002  5.712128807209435E-018
  6.774609216809297E-021 -1.985233470127266E-023
  strhar : after mpi_comm, harstr=  7.104708100536125E-002
  7.104708100536100E-002  7.146380235645676E-002  1.091637404771665E-017
  6.774843887323753E-021 -1.819746663621279E-023
  strhar : ehart,ucvol=   14.3874184218028        423.298734392737     

 Cartesian components of stress tensor (hartree/bohr^3)
  sigma(1 1)= -1.26031931E-03  sigma(3 2)=  0.00000000E+00
  sigma(2 2)= -1.26031931E-03  sigma(3 1)=  0.00000000E+00
  sigma(3 3)= -1.44388892E-03  sigma(2 1)=  0.00000000E+00
 
 symatm: atom number     1 is reached starting at atom
   1  1  1  1  1  1  1  1
 symatm: atom number     2 is reached starting at atom
   2  2  2  2  2  2  2  2
 symatm: atom number     3 is reached starting at atom
   3  3  3  3  4  4  4  4
 symatm: atom number     4 is reached starting at atom
   4  4  4  4  3  3  3  3
 symatm: atom number     5 is reached starting at atom
   5  5  5  5  5  5  5  5
 ioarr: writing density data
ioarr: file name is out_structopt_DS1_TIM1_DEN

 m_wffile.F90:327:COMMENT
   MPI/IO accessing FORTRAN file header: detected record mark length=4
ioarr: data written to disk file out_structopt_DS1_TIM1_DEN
-P-0000  leave_test : synchronization done...
 ihist @ write_md_hist           1
 mxhist @ write_md_hist          40

---OUTPUT-----------------------------------------------------------------------

 Cartesian coordinates (xcart) [bohr]
  0.00000000000000E+00  0.00000000000000E+00  0.00000000000000E+00
  3.74165774311357E+00  3.74165774311357E+00  3.89283583374442E+00
  0.00000000000000E+00  3.74165774311357E+00  3.66606869779815E+00
  3.74165774311357E+00  0.00000000000000E+00  3.66606869779815E+00
  3.74165774311357E+00  3.74165774311357E+00 -2.26767135946277E-01
 Reduced coordinates (xred)
  0.00000000000000E+00  0.00000000000000E+00  0.00000000000000E+00
  5.00000000000000E-01  5.00000000000000E-01  5.15000000000000E-01
  0.00000000000000E+00  5.00000000000000E-01  4.85000000000000E-01
  5.00000000000000E-01  0.00000000000000E+00  4.85000000000000E-01
  5.00000000000000E-01  5.00000000000000E-01 -3.00000000000000E-02
 Cartesian forces (fcart) [Ha/bohr]; max,rms= 7.06565E-02 2.65772E-02 (free atoms)
  0.00000000000000E+00  0.00000000000000E+00 -5.96450117606149E-03
  0.00000000000000E+00  0.00000000000000E+00 -5.88807472476311E-02
  0.00000000000000E+00  0.00000000000000E+00 -2.90564469391826E-03
  0.00000000000000E+00  0.00000000000000E+00 -2.90564469391826E-03
  0.00000000000000E+00  0.00000000000000E+00  7.06565378115291E-02
 Reduced forces (fred)
  0.00000000000000E+00  0.00000000000000E+00  4.51172535752305E-02
  0.00000000000000E+00  0.00000000000000E+00  4.45106105797840E-01
  0.00000000000000E+00  0.00000000000000E+00  2.19956494510197E-02
  0.00000000000000E+00  0.00000000000000E+00  2.19956494510197E-02
  0.00000000000000E+00  0.00000000000000E+00 -5.34053865239568E-01
 Total energy (etotal) [Ha]= -7.17083984442061E+01
 fconv : at Broyd/MD step   1, gradients have not converged yet.
  max grad (force/stress) = 7.0657E-02 > tolmxf= 1.0000E-04 ha/bohr (free atoms)

 Geometry Optimization Precondition:           0
 Inverse hessian has been initialized.
 EXIT:           1           1

--- Iteration: ( 2/40) Internal Cycle: (1/1)
--------------------------------------------------------------------------------

 Cartesian coordinates (xcart) [bohr]
  0.00000000000000E+00  0.00000000000000E+00  0.00000000000000E+00
  3.74165774311357E+00  3.74165774311357E+00  3.83395508649679E+00
  0.00000000000000E+00  3.74165774311357E+00  3.66316305310423E+00
  3.74165774311357E+00  0.00000000000000E+00  3.66316305310423E+00
  3.74165774311357E+00  3.74165774311357E+00 -1.56110598134748E-01
 Reduced coordinates (xred)
  0.00000000000000E+00  0.00000000000000E+00  0.00000000000000E+00
  5.00000000000000E-01  5.00000000000000E-01  5.07210412632951E-01
  0.00000000000000E+00  5.00000000000000E-01  4.84615599762930E-01
  5.00000000000000E-01  0.00000000000000E+00  4.84615599762930E-01
  5.00000000000000E-01  5.00000000000000E-01 -2.06525426380653E-02

---SELF-CONSISTENT-FIELD CONVERGENCE--------------------------------------------

 getcut: wavevector=  0.0000  0.0000  0.0000  ngfft=  40  40  48
         ecut(hartree)=     35.000   => boxcut(ratio)=   2.00709

 ewald : nr and ng are    3 and   15

 ITER STEP NUMBER     1
 vtorho : nnsclo_now=  2, note that nnsclo,dbl_nnsclo,istep=  0 0  1
-P-0000  leave_test : synchronization done...
 vtorho: loop on k-points and spins done in parallel
 Total charge density [el/Bohr^3]
,     Maximum=    9.6072E-01  at reduced coord.    0.5000    0.0000    0.1667
,     Minimum=    1.9801E-05  at reduced coord.    0.0000    0.0000    0.0000
,  Integrated=    3.0000E+01
 ETOT  1  -71.714050110993    -7.171E+01 1.324E-04 2.689E+00
 scprqt: <Vxc>= -4.3096565E-01 hartree

Simple mixing update:
  residual square of the potential :  0.852138215523618

 ITER STEP NUMBER     2
 vtorho : nnsclo_now=  2, note that nnsclo,dbl_nnsclo,istep=  0 0  2
-P-0000  leave_test : synchronization done...
 vtorho: loop on k-points and spins done in parallel
 Total charge density [el/Bohr^3]
,     Maximum=    9.5467E-01  at reduced coord.    0.5000    0.0000    0.1667
,     Minimum=    2.0637E-05  at reduced coord.    0.0000    0.0000    0.0000
,  Integrated=    3.0000E+01
 ETOT  2  -71.714009226466     4.088E-05 6.809E-05 1.749E+00
 scprqt: <Vxc>= -4.3126223E-01 hartree

 Pulay update with  1 previous iterations:
 mixing of old trial potential : alpha(m:m-4)=  0.522      0.478

 ITER STEP NUMBER     3
 vtorho : nnsclo_now=  1, note that nnsclo,dbl_nnsclo,istep=  0 0  3
-P-0000  leave_test : synchronization done...
 vtorho: loop on k-points and spins done in parallel
 Total charge density [el/Bohr^3]
,     Maximum=    9.6188E-01  at reduced coord.    0.5000    0.0000    0.1667
,     Minimum=    2.0503E-05  at reduced coord.    0.0000    0.0000    0.0000
,  Integrated=    3.0000E+01
 ETOT  3  -71.714423011282    -4.138E-04 9.818E-06 3.965E-01
 scprqt: <Vxc>= -4.3085719E-01 hartree

 Pulay update with  2 previous iterations:
 mixing of old trial potential : alpha(m:m-4)=  0.698      0.326     -0.235E-01

 ITER STEP NUMBER     4
 vtorho : nnsclo_now=  1, note that nnsclo,dbl_nnsclo,istep=  0 0  4
-P-0000  leave_test : synchronization done...
 vtorho: loop on k-points and spins done in parallel
 Total charge density [el/Bohr^3]
,     Maximum=    9.5804E-01  at reduced coord.    0.5000    0.0000    0.1667
,     Minimum=    2.0606E-05  at reduced coord.    0.0000    0.0000    0.0000
,  Integrated=    3.0000E+01
 ETOT  4  -71.714586383584    -1.634E-04 8.184E-05 7.149E-02
 scprqt: <Vxc>= -4.3106738E-01 hartree

 Pulay update with  3 previous iterations:
 mixing of old trial potential : alpha(m:m-4)=  0.446      0.407      0.193     -0.471E-01

 ITER STEP NUMBER     5
 vtorho : nnsclo_now=  1, note that nnsclo,dbl_nnsclo,istep=  0 0  5
-P-0000  leave_test : synchronization done...
 vtorho: loop on k-points and spins done in parallel
 Total charge density [el/Bohr^3]
,     Maximum=    9.5899E-01  at reduced coord.    0.5000    0.0000    0.1667
,     Minimum=    2.0475E-05  at reduced coord.    0.0000    0.0000    0.0000
,  Integrated=    3.0000E+01
 ETOT  5  -71.714601521613    -1.514E-05 1.085E-05 6.336E-03
 scprqt: <Vxc>= -4.3102818E-01 hartree

 Pulay update with  4 previous iterations:
 mixing of old trial potential : alpha(m:m-4)=  0.831     -0.302E-01  0.132      0.810E-01 -0.137E-01

 ITER STEP NUMBER     6
 vtorho : nnsclo_now=  1, note that nnsclo,dbl_nnsclo,istep=  0 0  6
-P-0000  leave_test : synchronization done...
 vtorho: loop on k-points and spins done in parallel
 Total charge density [el/Bohr^3]
,     Maximum=    9.5838E-01  at reduced coord.    0.5000    0.0000    0.1667
,     Minimum=    2.0483E-05  at reduced coord.    0.0000    0.0000    0.0000
,  Integrated=    3.0000E+01
 ETOT  6  -71.714602096462    -5.748E-07 8.328E-05 5.417E-03
 scprqt: <Vxc>= -4.3104899E-01 hartree

 Pulay update with  5 previous iterations:
 mixing of old trial potential : alpha(m:m-4)=  0.765      0.600     -0.332     -0.171E-01 -0.224E-01

 ITER STEP NUMBER     7
 vtorho : nnsclo_now=  1, note that nnsclo,dbl_nnsclo,istep=  0 0  7
-P-0000  leave_test : synchronization done...
 vtorho: loop on k-points and spins done in parallel
 Total charge density [el/Bohr^3]
,     Maximum=    9.5870E-01  at reduced coord.    0.5000    0.0000    0.1667
,     Minimum=    2.0448E-05  at reduced coord.    0.0000    0.0000    0.0000
,  Integrated=    3.0000E+01
 ETOT  7  -71.714604023195    -1.927E-06 1.114E-05 7.380E-04
 scprqt: <Vxc>= -4.3103012E-01 hartree

 Pulay update with  6 previous iterations:
 mixing of old trial potential : alpha(m:m-4)=   1.03     -0.436      0.429     -0.683E-02 -0.216E-01

 ITER STEP NUMBER     8
 vtorho : nnsclo_now=  1, note that nnsclo,dbl_nnsclo,istep=  0 0  8
-P-0000  leave_test : synchronization done...
 vtorho: loop on k-points and spins done in parallel
 Total charge density [el/Bohr^3]
,     Maximum=    9.5865E-01  at reduced coord.    0.5000    0.0000    0.1667
,     Minimum=    2.0476E-05  at reduced coord.    0.0000    0.0000    0.0000
,  Integrated=    3.0000E+01
 ETOT  8  -71.714603723538     2.997E-07 8.031E-05 1.307E-03
 scprqt: <Vxc>= -4.3103777E-01 hartree

 Pulay update with  7 previous iterations:
 mixing of old trial potential : alpha(m:m-4)=  0.526      0.695     -0.331      0.729E-01  0.362E-01

 ITER STEP NUMBER     9
 vtorho : nnsclo_now=  1, note that nnsclo,dbl_nnsclo,istep=  0 0  9
-P-0000  leave_test : synchronization done...
 vtorho: loop on k-points and spins done in parallel
 Total charge density [el/Bohr^3]
,     Maximum=    9.5882E-01  at reduced coord.    0.5000    0.0000    0.1667
,     Minimum=    2.0441E-05  at reduced coord.    0.0000    0.0000    0.0000
,  Integrated=    3.0000E+01
 ETOT  9  -71.714604238132    -5.146E-07 1.061E-05 3.271E-04
 scprqt: <Vxc>= -4.3103047E-01 hartree

 Pulay update with  7 previous iterations:
 mixing of old trial potential : alpha(m:m-4)=  0.846     -0.149      0.384     -0.851E-01 -0.372E-01

 ITER STEP NUMBER    10
 vtorho : nnsclo_now=  1, note that nnsclo,dbl_nnsclo,istep=  0 0 10
-P-0000  leave_test : synchronization done...
 vtorho: loop on k-points and spins done in parallel
 Total charge density [el/Bohr^3]
,     Maximum=    9.5880E-01  at reduced coord.    0.5000    0.0000    0.1667
,     Minimum=    2.0442E-05  at reduced coord.    0.0000    0.0000    0.0000
,  Integrated=    3.0000E+01
 ETOT 10  -71.714604358148    -1.200E-07 7.329E-05 3.318E-05
 scprqt: <Vxc>= -4.3102967E-01 hartree

 Pulay update with  7 previous iterations:
 mixing of old trial potential : alpha(m:m-4)=  0.884      0.221E-01  0.983E-02  0.148     -0.521E-01

 ITER STEP NUMBER    11
 vtorho : nnsclo_now=  1, note that nnsclo,dbl_nnsclo,istep=  0 0 11
-P-0000  leave_test : synchronization done...
 vtorho: loop on k-points and spins done in parallel
 Total charge density [el/Bohr^3]
,     Maximum=    9.5882E-01  at reduced coord.    0.5000    0.0000    0.1667
,     Minimum=    2.0436E-05  at reduced coord.    0.0000    0.0000    0.0000
,  Integrated=    3.0000E+01
 ETOT 11  -71.714604371948    -1.380E-08 9.667E-06 1.076E-05
 scprqt: <Vxc>= -4.3102859E-01 hartree

 Pulay update with  7 previous iterations:
 mixing of old trial potential : alpha(m:m-4)=  0.890      0.109E-03  0.196     -0.141      0.418E-01

 ITER STEP NUMBER    12
 vtorho : nnsclo_now=  1, note that nnsclo,dbl_nnsclo,istep=  0 0 12
-P-0000  leave_test : synchronization done...
 vtorho: loop on k-points and spins done in parallel
 Total charge density [el/Bohr^3]
,     Maximum=    9.5880E-01  at reduced coord.    0.5000    0.0000    0.1667
,     Minimum=    2.0438E-05  at reduced coord.    0.0000    0.0000    0.0000
,  Integrated=    3.0000E+01
 ETOT 12  -71.714604374360    -2.412E-09 6.463E-05 1.399E-06
 scprqt: <Vxc>= -4.3102861E-01 hartree

 At SCF step   12, etot is converged : 
  for the second time, diff in etot=  2.412E-09 < toldfe=  7.000E-08
forstrnps: loop on k-points and spins done in parallel
-P-0000  leave_test : synchronization done...
-P-0000  leave_test : synchronization done...
  strhar : before mpi_comm, harstr=  4.823407892837697E-002
  3.543523710061292E-002  4.883849241477085E-002  3.585566566343808E-018
 -2.771055052052643E-023 -2.316105715148477E-023
  strhar : after mpi_comm, harstr=  7.087200967146240E-002
  7.087200967146273E-002  7.121176655958458E-002  1.052433230256853E-017
 -2.783659809308080E-023 -2.316802476543014E-023
  strhar : ehart,ucvol=   14.3468496068609        423.298734392737     

 Cartesian components of stress tensor (hartree/bohr^3)
  sigma(1 1)= -1.25898422E-03  sigma(3 2)=  0.00000000E+00
  sigma(2 2)= -1.25898422E-03  sigma(3 1)=  0.00000000E+00
  sigma(3 3)= -1.25227696E-03  sigma(2 1)=  0.00000000E+00
 
 symatm: atom number     1 is reached starting at atom
   1  1  1  1  1  1  1  1
 symatm: atom number     2 is reached starting at atom
   2  2  2  2  2  2  2  2
 symatm: atom number     3 is reached starting at atom
   3  3  3  3  4  4  4  4
 symatm: atom number     4 is reached starting at atom
   4  4  4  4  3  3  3  3
 symatm: atom number     5 is reached starting at atom
   5  5  5  5  5  5  5  5
 ioarr: writing density data
ioarr: file name is out_structopt_DS1_TIM2_DEN

 m_wffile.F90:327:COMMENT
   MPI/IO accessing FORTRAN file header: detected record mark length=4
ioarr: data written to disk file out_structopt_DS1_TIM2_DEN
-P-0000  leave_test : synchronization done...
 ihist @ write_md_hist           2
 mxhist @ write_md_hist          40
 OPEN NETCDF FILE

---OUTPUT-----------------------------------------------------------------------

 Cartesian coordinates (xcart) [bohr]
  0.00000000000000E+00  0.00000000000000E+00  0.00000000000000E+00
  3.74165774311357E+00  3.74165774311357E+00  3.83395508649679E+00
  0.00000000000000E+00  3.74165774311357E+00  3.66316305310423E+00
  3.74165774311357E+00  0.00000000000000E+00  3.66316305310423E+00
  3.74165774311357E+00  3.74165774311357E+00 -1.56110598134748E-01
 Reduced coordinates (xred)
  0.00000000000000E+00  0.00000000000000E+00  0.00000000000000E+00
  5.00000000000000E-01  5.00000000000000E-01  5.07210412632951E-01
  0.00000000000000E+00  5.00000000000000E-01  4.84615599762930E-01
  5.00000000000000E-01  0.00000000000000E+00  4.84615599762930E-01
  5.00000000000000E-01  5.00000000000000E-01 -2.06525426380653E-02
 Cartesian forces (fcart) [Ha/bohr]; max,rms= 3.53316E-02 1.30728E-02 (free atoms)
  0.00000000000000E+00  0.00000000000000E+00 -8.74584892707934E-03
  0.00000000000000E+00  0.00000000000000E+00 -2.83016415645383E-02
  0.00000000000000E+00  0.00000000000000E+00  8.57963598520906E-04
  0.00000000000000E+00  0.00000000000000E+00  8.57963598520906E-04
  0.00000000000000E+00  0.00000000000000E+00  3.53315632945758E-02
 Reduced forces (fred)
  0.00000000000000E+00  0.00000000000000E+00  6.60821682394780E-02
  0.00000000000000E+00  0.00000000000000E+00  2.13902537824673E-01
  0.00000000000000E+00  0.00000000000000E+00 -6.51213378036696E-03
  0.00000000000000E+00  0.00000000000000E+00 -6.51213378036696E-03
  0.00000000000000E+00  0.00000000000000E+00 -2.67094782741461E-01
 Total energy (etotal) [Ha]= -7.17146043743599E+01

 Difference of energy with previous step (new-old):
           Absolute (Ha)=-6.20593E-03
           Relative     =-8.65402E-05
 fconv : at Broyd/MD step   2, gradients have not converged yet.
  max grad (force/stress) = 3.5332E-02 > tolmxf= 1.0000E-04 ha/bohr (free atoms)

 Geometry Optimization Precondition:           0
 EXIT:           1           1

--- Iteration: ( 3/40) Internal Cycle: (1/1)
--------------------------------------------------------------------------------

 Cartesian coordinates (xcart) [bohr]
  0.00000000000000E+00  0.00000000000000E+00  0.00000000000000E+00
  3.74165774311357E+00  3.74165774311357E+00  3.77810344076254E+00
  0.00000000000000E+00  3.74165774311357E+00  3.66483228031461E+00
  3.74165774311357E+00  0.00000000000000E+00  3.66483228031461E+00
  3.74165774311357E+00  3.74165774311357E+00 -8.64003390985844E-02
 Reduced coordinates (xred)
  0.00000000000000E+00  0.00000000000000E+00  0.00000000000000E+00
  5.00000000000000E-01  5.00000000000000E-01  4.99821558136749E-01
  0.00000000000000E+00  5.00000000000000E-01  4.84836429011853E-01
  5.00000000000000E-01  0.00000000000000E+00  4.84836429011853E-01
  5.00000000000000E-01  5.00000000000000E-01 -1.14302725663546E-02

---SELF-CONSISTENT-FIELD CONVERGENCE--------------------------------------------

 getcut: wavevector=  0.0000  0.0000  0.0000  ngfft=  40  40  48
         ecut(hartree)=     35.000   => boxcut(ratio)=   2.00709

 ewald : nr and ng are    3 and   15

 ITER STEP NUMBER     1
 vtorho : nnsclo_now=  2, note that nnsclo,dbl_nnsclo,istep=  0 0  1
-P-0000  leave_test : synchronization done...
 vtorho: loop on k-points and spins done in parallel
 Total charge density [el/Bohr^3]
,     Maximum=    9.6235E-01  at reduced coord.    0.5000    0.0000    0.1667
,     Minimum=    1.9852E-05  at reduced coord.    0.0000    0.0000    0.0000
,  Integrated=    3.0000E+01
 ETOT  1  -71.716788767988    -7.172E+01 1.053E-04 4.036E-01
 scprqt: <Vxc>= -4.3104123E-01 hartree

Simple mixing update:
  residual square of the potential :  0.110355731167630

 ITER STEP NUMBER     2
 vtorho : nnsclo_now=  2, note that nnsclo,dbl_nnsclo,istep=  0 0  2
-P-0000  leave_test : synchronization done...
 vtorho: loop on k-points and spins done in parallel
 Total charge density [el/Bohr^3]
,     Maximum=    9.5711E-01  at reduced coord.    0.4750    0.5500    0.0208
,     Minimum=    2.0477E-05  at reduced coord.    0.0000    0.0000    0.0000
,  Integrated=    3.0000E+01
 ETOT  2  -71.716782480784     6.287E-06 3.601E-05 1.098E+00
 scprqt: <Vxc>= -4.3116768E-01 hartree

 Pulay update with  1 previous iterations:
 mixing of old trial potential : alpha(m:m-4)=  0.348      0.652

 ITER STEP NUMBER     3
 vtorho : nnsclo_now=  1, note that nnsclo,dbl_nnsclo,istep=  0 0  3
-P-0000  leave_test : synchronization done...
 vtorho: loop on k-points and spins done in parallel
 Total charge density [el/Bohr^3]
,     Maximum=    9.5855E-01  at reduced coord.    0.0000    0.4500    0.1875
,     Minimum=    2.0771E-05  at reduced coord.    0.0000    0.0000    0.0000
,  Integrated=    3.0000E+01
 ETOT  3  -71.716969087170    -1.866E-04 4.572E-05 3.333E-02
 scprqt: <Vxc>= -4.3111471E-01 hartree

 Pulay update with  2 previous iterations:
 mixing of old trial potential : alpha(m:m-4)=  0.546      0.187      0.267

 ITER STEP NUMBER     4
 vtorho : nnsclo_now=  1, note that nnsclo,dbl_nnsclo,istep=  0 0  4
-P-0000  leave_test : synchronization done...
 vtorho: loop on k-points and spins done in parallel
 Total charge density [el/Bohr^3]
,     Maximum=    9.5812E-01  at reduced coord.    0.0000    0.4500    0.1875
,     Minimum=    2.0496E-05  at reduced coord.    0.0000    0.0000    0.0000
,  Integrated=    3.0000E+01
 ETOT  4  -71.717078501495    -1.094E-04 2.413E-05 6.079E-03
 scprqt: <Vxc>= -4.3112111E-01 hartree

 Pulay update with  3 previous iterations:
 mixing of old trial potential : alpha(m:m-4)=   1.00     -0.662E-01 -0.208E-01  0.835E-01

 ITER STEP NUMBER     5
 vtorho : nnsclo_now=  1, note that nnsclo,dbl_nnsclo,istep=  0 0  5
-P-0000  leave_test : synchronization done...
 vtorho: loop on k-points and spins done in parallel
 Total charge density [el/Bohr^3]
,     Maximum=    9.5815E-01  at reduced coord.    0.0000    0.4500    0.1875
,     Minimum=    2.0447E-05  at reduced coord.    0.0000    0.0000    0.0000
,  Integrated=    3.0000E+01
 ETOT  5  -71.717086226098    -7.725E-06 3.409E-06 5.921E-03
 scprqt: <Vxc>= -4.3110891E-01 hartree

 Pulay update with  4 previous iterations:
 mixing of old trial potential : alpha(m:m-4)=  0.708      0.405     -0.549E-01 -0.709E-01  0.121E-01

 ITER STEP NUMBER     6
 vtorho : nnsclo_now=  1, note that nnsclo,dbl_nnsclo,istep=  0 0  6
-P-0000  leave_test : synchronization done...
 vtorho: loop on k-points and spins done in parallel
 Total charge density [el/Bohr^3]
,     Maximum=    9.5807E-01  at reduced coord.    0.0000    0.4500    0.1875
,     Minimum=    2.0451E-05  at reduced coord.    0.0000    0.0000    0.0000
,  Integrated=    3.0000E+01
 ETOT  6  -71.717088179795    -1.954E-06 1.654E-05 2.726E-03
 scprqt: <Vxc>= -4.3112037E-01 hartree

 Pulay update with  5 previous iterations:
 mixing of old trial potential : alpha(m:m-4)=  0.488      0.585     -0.770E-01  0.745E-01 -0.563E-01

 ITER STEP NUMBER     7
 vtorho : nnsclo_now=  1, note that nnsclo,dbl_nnsclo,istep=  0 0  7
-P-0000  leave_test : synchronization done...
 vtorho: loop on k-points and spins done in parallel
 Total charge density [el/Bohr^3]
,     Maximum=    9.5833E-01  at reduced coord.    0.0000    0.4500    0.1875
,     Minimum=    2.0428E-05  at reduced coord.    0.0000    0.0000    0.0000
,  Integrated=    3.0000E+01
 ETOT  7  -71.717089484488    -1.305E-06 2.900E-06 4.718E-04
 scprqt: <Vxc>= -4.3111052E-01 hartree

 Pulay update with  6 previous iterations:
 mixing of old trial potential : alpha(m:m-4)=   1.21     -0.116     -0.187     -0.156E-01  0.959E-01

 ITER STEP NUMBER     8
 vtorho : nnsclo_now=  1, note that nnsclo,dbl_nnsclo,istep=  0 0  8
-P-0000  leave_test : synchronization done...
 vtorho: loop on k-points and spins done in parallel
 Total charge density [el/Bohr^3]
,     Maximum=    9.5830E-01  at reduced coord.    0.0000    0.4500    0.1875
,     Minimum=    2.0433E-05  at reduced coord.    0.0000    0.0000    0.0000
,  Integrated=    3.0000E+01
 ETOT  8  -71.717089689109    -2.046E-07 1.212E-05 1.779E-04
 scprqt: <Vxc>= -4.3111342E-01 hartree

 Pulay update with  7 previous iterations:
 mixing of old trial potential : alpha(m:m-4)=  0.575      0.287      0.764E-01  0.982E-01 -0.850E-01

 ITER STEP NUMBER     9
 vtorho : nnsclo_now=  1, note that nnsclo,dbl_nnsclo,istep=  0 0  9
-P-0000  leave_test : synchronization done...
 vtorho: loop on k-points and spins done in parallel
 Total charge density [el/Bohr^3]
,     Maximum=    9.5835E-01  at reduced coord.    0.0000    0.4500    0.1875
,     Minimum=    2.0428E-05  at reduced coord.    0.0000    0.0000    0.0000
,  Integrated=    3.0000E+01
 ETOT  9  -71.717089755609    -6.650E-08 2.418E-06 3.672E-05
 scprqt: <Vxc>= -4.3111082E-01 hartree

 Pulay update with  7 previous iterations:
 mixing of old trial potential : alpha(m:m-4)=   1.88     -0.528     -0.581      0.283      0.987E-03

 ITER STEP NUMBER    10
 vtorho : nnsclo_now=  1, note that nnsclo,dbl_nnsclo,istep=  0 0 10
-P-0000  leave_test : synchronization done...
 vtorho: loop on k-points and spins done in parallel
 Total charge density [el/Bohr^3]
,     Maximum=    9.5835E-01  at reduced coord.    0.0000    0.4500    0.1875
,     Minimum=    2.0430E-05  at reduced coord.    0.0000    0.0000    0.0000
,  Integrated=    3.0000E+01
 ETOT 10  -71.717089763199    -7.590E-09 8.951E-06 3.506E-05
 scprqt: <Vxc>= -4.3111233E-01 hartree

 At SCF step   10, etot is converged : 
  for the second time, diff in etot=  7.590E-09 < toldfe=  7.000E-08
forstrnps: loop on k-points and spins done in parallel
-P-0000  leave_test : synchronization done...
-P-0000  leave_test : synchronization done...
  strhar : before mpi_comm, harstr=  4.813278052781930E-002
  3.537850360270642E-002  4.888258107894763E-002  9.697686830559385E-018
 -6.791359624213495E-021  2.020967672589557E-020
  strhar : after mpi_comm, harstr=  7.075854065370046E-002
  7.075854065369920E-002  7.122458345299287E-002  1.316694571053671E-017
 -6.790973107588642E-021  2.020886266995315E-020
  strhar : ehart,ucvol=   14.3324242471057        423.298734392737     

 Cartesian components of stress tensor (hartree/bohr^3)
  sigma(1 1)= -1.26082165E-03  sigma(3 2)=  0.00000000E+00
  sigma(2 2)= -1.26082165E-03  sigma(3 1)=  0.00000000E+00
  sigma(3 3)= -1.15533310E-03  sigma(2 1)=  0.00000000E+00
 
 symatm: atom number     1 is reached starting at atom
   1  1  1  1  1  1  1  1
 symatm: atom number     2 is reached starting at atom
   2  2  2  2  2  2  2  2
 symatm: atom number     3 is reached starting at atom
   3  3  3  3  4  4  4  4
 symatm: atom number     4 is reached starting at atom
   4  4  4  4  3  3  3  3
 symatm: atom number     5 is reached starting at atom
   5  5  5  5  5  5  5  5
 ioarr: writing density data
ioarr: file name is out_structopt_DS1_TIM3_DEN

 m_wffile.F90:327:COMMENT
   MPI/IO accessing FORTRAN file header: detected record mark length=4
ioarr: data written to disk file out_structopt_DS1_TIM3_DEN
-P-0000  leave_test : synchronization done...
 ihist @ write_md_hist           3
 mxhist @ write_md_hist          40
 OPEN NETCDF FILE

---OUTPUT-----------------------------------------------------------------------

 Cartesian coordinates (xcart) [bohr]
  0.00000000000000E+00  0.00000000000000E+00  0.00000000000000E+00
  3.74165774311357E+00  3.74165774311357E+00  3.77810344076254E+00
  0.00000000000000E+00  3.74165774311357E+00  3.66483228031461E+00
  3.74165774311357E+00  0.00000000000000E+00  3.66483228031461E+00
  3.74165774311357E+00  3.74165774311357E+00 -8.64003390985844E-02
 Reduced coordinates (xred)
  0.00000000000000E+00  0.00000000000000E+00  0.00000000000000E+00
  5.00000000000000E-01  5.00000000000000E-01  4.99821558136749E-01
  0.00000000000000E+00  5.00000000000000E-01  4.84836429011853E-01
  5.00000000000000E-01  0.00000000000000E+00  4.84836429011853E-01
  5.00000000000000E-01  5.00000000000000E-01 -1.14302725663546E-02
 Cartesian forces (fcart) [Ha/bohr]; max,rms= 8.82740E-03 3.81783E-03 (free atoms)
  0.00000000000000E+00  0.00000000000000E+00 -1.08237912091121E-02
  0.00000000000000E+00  0.00000000000000E+00 -7.32030791919325E-03
  0.00000000000000E+00  0.00000000000000E+00  4.65834843823499E-03
  0.00000000000000E+00  0.00000000000000E+00  4.65834843823499E-03
  0.00000000000000E+00  0.00000000000000E+00  8.82740225183542E-03
 Reduced forces (fred)
  0.00000000000000E+00  0.00000000000000E+00  8.18697507564448E-02
  0.00000000000000E+00  0.00000000000000E+00  5.53872550400932E-02
  0.00000000000000E+00  0.00000000000000E+00 -3.51582647818624E-02
  0.00000000000000E+00  0.00000000000000E+00 -3.51582647818624E-02
  0.00000000000000E+00  0.00000000000000E+00 -6.66717445457315E-02
 Total energy (etotal) [Ha]= -7.17170897631987E+01

 Difference of energy with previous step (new-old):
           Absolute (Ha)=-2.48539E-03
           Relative     =-3.46561E-05
 fconv : at Broyd/MD step   3, gradients have not converged yet.
  max grad (force/stress) = 8.8274E-03 > tolmxf= 1.0000E-04 ha/bohr (free atoms)

 Geometry Optimization Precondition:           0
 EXIT:           1           1

--- Iteration: ( 4/40) Internal Cycle: (1/1)
--------------------------------------------------------------------------------

 Cartesian coordinates (xcart) [bohr]
  0.00000000000000E+00  0.00000000000000E+00  0.00000000000000E+00
  3.74165774311357E+00  3.74165774311357E+00  3.75773572900737E+00
  0.00000000000000E+00  3.74165774311357E+00  3.67138244090008E+00
  3.74165774311357E+00  0.00000000000000E+00  3.67138244090008E+00
  3.74165774311357E+00  3.74165774311357E+00 -6.14152836925552E-02
 Reduced coordinates (xred)
  0.00000000000000E+00  0.00000000000000E+00  0.00000000000000E+00
  5.00000000000000E-01  5.00000000000000E-01  4.97127025923757E-01
  0.00000000000000E+00  5.00000000000000E-01  4.85702977935461E-01
  5.00000000000000E-01  0.00000000000000E+00  4.85702977935461E-01
  5.00000000000000E-01  5.00000000000000E-01 -8.12489209729733E-03

---SELF-CONSISTENT-FIELD CONVERGENCE--------------------------------------------

 getcut: wavevector=  0.0000  0.0000  0.0000  ngfft=  40  40  48
         ecut(hartree)=     35.000   => boxcut(ratio)=   2.00709

 ewald : nr and ng are    3 and   15

 ITER STEP NUMBER     1
 vtorho : nnsclo_now=  2, note that nnsclo,dbl_nnsclo,istep=  0 0  1
-P-0000  leave_test : synchronization done...
 vtorho: loop on k-points and spins done in parallel
 Total charge density [el/Bohr^3]
,     Maximum=    9.5696E-01  at reduced coord.    0.0000    0.4500    0.1875
,     Minimum=    2.0352E-05  at reduced coord.    0.0000    0.0000    0.0000
,  Integrated=    3.0000E+01
 ETOT  1  -71.717296821255    -7.172E+01 2.532E-05 2.063E-01
 scprqt: <Vxc>= -4.3110176E-01 hartree

Simple mixing update:
  residual square of the potential :  6.197587150361526E-002

 ITER STEP NUMBER     2
 vtorho : nnsclo_now=  2, note that nnsclo,dbl_nnsclo,istep=  0 0  2
-P-0000  leave_test : synchronization done...
 vtorho: loop on k-points and spins done in parallel
 Total charge density [el/Bohr^3]
,     Maximum=    9.5707E-01  at reduced coord.    0.0000    0.4500    0.1875
,     Minimum=    2.0471E-05  at reduced coord.    0.0000    0.0000    0.0000
,  Integrated=    3.0000E+01
 ETOT  2  -71.717201108089     9.571E-05 1.242E-05 5.154E-01
 scprqt: <Vxc>= -4.3119959E-01 hartree

 Pulay update with  1 previous iterations:
 mixing of old trial potential : alpha(m:m-4)=  0.354      0.646

 ITER STEP NUMBER     3
 vtorho : nnsclo_now=  1, note that nnsclo,dbl_nnsclo,istep=  0 0  3
-P-0000  leave_test : synchronization done...
 vtorho: loop on k-points and spins done in parallel
 Total charge density [el/Bohr^3]
,     Maximum=    9.5815E-01  at reduced coord.    0.0000    0.4500    0.1875
,     Minimum=    2.0494E-05  at reduced coord.    0.0000    0.0000    0.0000
,  Integrated=    3.0000E+01
 ETOT  3  -71.717320617884    -1.195E-04 7.583E-06 3.268E-02
 scprqt: <Vxc>= -4.3108037E-01 hartree

 Pulay update with  2 previous iterations:
 mixing of old trial potential : alpha(m:m-4)=  0.499      0.243      0.258

 ITER STEP NUMBER     4
 vtorho : nnsclo_now=  1, note that nnsclo,dbl_nnsclo,istep=  0 0  4
-P-0000  leave_test : synchronization done...
 vtorho: loop on k-points and spins done in parallel
 Total charge density [el/Bohr^3]
,     Maximum=    9.5669E-01  at reduced coord.    0.0000    0.4500    0.1875
,     Minimum=    2.0507E-05  at reduced coord.    0.0000    0.0000    0.0000
,  Integrated=    3.0000E+01
 ETOT  4  -71.717359918400    -3.930E-05 8.284E-06 1.247E-02
 scprqt: <Vxc>= -4.3114527E-01 hartree

 Pulay update with  3 previous iterations:
 mixing of old trial potential : alpha(m:m-4)=  0.534      0.407      0.890E-01 -0.294E-01

 ITER STEP NUMBER     5
 vtorho : nnsclo_now=  1, note that nnsclo,dbl_nnsclo,istep=  0 0  5
-P-0000  leave_test : synchronization done...
 vtorho: loop on k-points and spins done in parallel
 Total charge density [el/Bohr^3]
,     Maximum=    9.5708E-01  at reduced coord.    0.0000    0.4500    0.1875
,     Minimum=    2.0428E-05  at reduced coord.    0.0000    0.0000    0.0000
,  Integrated=    3.0000E+01
 ETOT  5  -71.717364169649    -4.251E-06 1.344E-06 2.670E-03
 scprqt: <Vxc>= -4.3112005E-01 hartree

 Pulay update with  4 previous iterations:
 mixing of old trial potential : alpha(m:m-4)=  0.456      0.193      0.293      0.643E-01 -0.690E-02

 ITER STEP NUMBER     6
 vtorho : nnsclo_now=  1, note that nnsclo,dbl_nnsclo,istep=  0 0  6
-P-0000  leave_test : synchronization done...
 vtorho: loop on k-points and spins done in parallel
 Total charge density [el/Bohr^3]
,     Maximum=    9.5698E-01  at reduced coord.    0.0000    0.4500    0.1875
,     Minimum=    2.0435E-05  at reduced coord.    0.0000    0.0000    0.0000
,  Integrated=    3.0000E+01
 ETOT  6  -71.717364883358    -7.137E-07 8.227E-06 1.864E-03
 scprqt: <Vxc>= -4.3113265E-01 hartree

 Pulay update with  5 previous iterations:
 mixing of old trial potential : alpha(m:m-4)=   1.21      0.370E-01 -0.317      0.108     -0.401E-01

 ITER STEP NUMBER     7
 vtorho : nnsclo_now=  1, note that nnsclo,dbl_nnsclo,istep=  0 0  7
-P-0000  leave_test : synchronization done...
 vtorho: loop on k-points and spins done in parallel
 Total charge density [el/Bohr^3]
,     Maximum=    9.5722E-01  at reduced coord.    0.0000    0.4500    0.1875
,     Minimum=    2.0416E-05  at reduced coord.    0.0000    0.0000    0.0000
,  Integrated=    3.0000E+01
 ETOT  7  -71.717365654828    -7.715E-07 1.340E-06 1.604E-04
 scprqt: <Vxc>= -4.3112134E-01 hartree

 Pulay update with  6 previous iterations:
 mixing of old trial potential : alpha(m:m-4)=   1.43     -0.821      0.252      0.183     -0.537E-01

 ITER STEP NUMBER     8
 vtorho : nnsclo_now=  1, note that nnsclo,dbl_nnsclo,istep=  0 0  8
-P-0000  leave_test : synchronization done...
 vtorho: loop on k-points and spins done in parallel
 Total charge density [el/Bohr^3]
,     Maximum=    9.5714E-01  at reduced coord.    0.0000    0.4500    0.1875
,     Minimum=    2.0421E-05  at reduced coord.    0.0000    0.0000    0.0000
,  Integrated=    3.0000E+01
 ETOT  8  -71.717365651217     3.611E-09 8.046E-06 1.382E-04
 scprqt: <Vxc>= -4.3112485E-01 hartree

 Pulay update with  7 previous iterations:
 mixing of old trial potential : alpha(m:m-4)=  0.929      0.222     -0.301      0.160     -0.173E-01

 ITER STEP NUMBER     9
 vtorho : nnsclo_now=  1, note that nnsclo,dbl_nnsclo,istep=  0 0  9
-P-0000  leave_test : synchronization done...
 vtorho: loop on k-points and spins done in parallel
 Total charge density [el/Bohr^3]
,     Maximum=    9.5718E-01  at reduced coord.    0.0000    0.4500    0.1875
,     Minimum=    2.0412E-05  at reduced coord.    0.0000    0.0000    0.0000
,  Integrated=    3.0000E+01
 ETOT  9  -71.717365734154    -8.294E-08 1.327E-06 7.989E-06
 scprqt: <Vxc>= -4.3112171E-01 hartree

 Pulay update with  7 previous iterations:
 mixing of old trial potential : alpha(m:m-4)=  0.946      0.105     -0.645E-01 -0.178E-03  0.307E-01

 ITER STEP NUMBER    10
 vtorho : nnsclo_now=  1, note that nnsclo,dbl_nnsclo,istep=  0 0 10
-P-0000  leave_test : synchronization done...
 vtorho: loop on k-points and spins done in parallel
 Total charge density [el/Bohr^3]
,     Maximum=    9.5719E-01  at reduced coord.    0.0000    0.4500    0.1875
,     Minimum=    2.0412E-05  at reduced coord.    0.0000    0.0000    0.0000
,  Integrated=    3.0000E+01
 ETOT 10  -71.717365740836    -6.681E-09 7.912E-06 5.139E-06
 scprqt: <Vxc>= -4.3112132E-01 hartree

 Pulay update with  7 previous iterations:
 mixing of old trial potential : alpha(m:m-4)=  0.283      0.741      0.627E-01 -0.118      0.284E-01

 ITER STEP NUMBER    11
 vtorho : nnsclo_now=  1, note that nnsclo,dbl_nnsclo,istep=  0 0 11
-P-0000  leave_test : synchronization done...
 vtorho: loop on k-points and spins done in parallel
 Total charge density [el/Bohr^3]
,     Maximum=    9.5719E-01  at reduced coord.    0.0000    0.4500    0.1875
,     Minimum=    2.0411E-05  at reduced coord.    0.0000    0.0000    0.0000
,  Integrated=    3.0000E+01
 ETOT 11  -71.717365742777    -1.942E-09 1.302E-06 3.515E-06
 scprqt: <Vxc>= -4.3112120E-01 hartree

 At SCF step   11, etot is converged : 
  for the second time, diff in etot=  1.942E-09 < toldfe=  7.000E-08
forstrnps: loop on k-points and spins done in parallel
-P-0000  leave_test : synchronization done...
-P-0000  leave_test : synchronization done...
  strhar : before mpi_comm, harstr=  4.811583739043961E-002
  3.536823805901843E-002  4.893315768488467E-002  5.110149770785194E-018
  6.766130615530628E-021 -5.293955920339377E-023
  strhar : after mpi_comm, harstr=  7.073800864812410E-002
  7.073800864812407E-002  7.126939704538110E-002  2.245734304418237E-017
  6.766620555000065E-021 -5.459967674662152E-023
  strhar : ehart,ucvol=   14.3326768567160        423.298734392737     

 Cartesian components of stress tensor (hartree/bohr^3)
  sigma(1 1)= -1.26270207E-03  sigma(3 2)=  0.00000000E+00
  sigma(2 2)= -1.26270207E-03  sigma(3 1)=  0.00000000E+00
  sigma(3 3)= -1.14044598E-03  sigma(2 1)=  0.00000000E+00
 
 symatm: atom number     1 is reached starting at atom
   1  1  1  1  1  1  1  1
 symatm: atom number     2 is reached starting at atom
   2  2  2  2  2  2  2  2
 symatm: atom number     3 is reached starting at atom
   3  3  3  3  4  4  4  4
 symatm: atom number     4 is reached starting at atom
   4  4  4  4  3  3  3  3
 symatm: atom number     5 is reached starting at atom
   5  5  5  5  5  5  5  5
 ioarr: writing density data
ioarr: file name is out_structopt_DS1_TIM4_DEN

 m_wffile.F90:327:COMMENT
   MPI/IO accessing FORTRAN file header: detected record mark length=4
ioarr: data written to disk file out_structopt_DS1_TIM4_DEN
-P-0000  leave_test : synchronization done...
 ihist @ write_md_hist           4
 mxhist @ write_md_hist          40
 OPEN NETCDF FILE

---OUTPUT-----------------------------------------------------------------------

 Cartesian coordinates (xcart) [bohr]
  0.00000000000000E+00  0.00000000000000E+00  0.00000000000000E+00
  3.74165774311357E+00  3.74165774311357E+00  3.75773572900737E+00
  0.00000000000000E+00  3.74165774311357E+00  3.67138244090008E+00
  3.74165774311357E+00  0.00000000000000E+00  3.67138244090008E+00
  3.74165774311357E+00  3.74165774311357E+00 -6.14152836925552E-02
 Reduced coordinates (xred)
  0.00000000000000E+00  0.00000000000000E+00  0.00000000000000E+00
  5.00000000000000E-01  5.00000000000000E-01  4.97127025923757E-01
  0.00000000000000E+00  5.00000000000000E-01  4.85702977935461E-01
  5.00000000000000E-01  0.00000000000000E+00  4.85702977935461E-01
  5.00000000000000E-01  5.00000000000000E-01 -8.12489209729733E-03
 Cartesian forces (fcart) [Ha/bohr]; max,rms= 5.66605E-03 2.35461E-03 (free atoms)
  0.00000000000000E+00  0.00000000000000E+00 -1.10578970773058E-02
  0.00000000000000E+00  0.00000000000000E+00 -1.20587654389931E-03
  0.00000000000000E+00  0.00000000000000E+00  5.66605496979010E-03
  0.00000000000000E+00  0.00000000000000E+00  5.66605496979010E-03
  0.00000000000000E+00  0.00000000000000E+00  9.31663681624877E-04
 Reduced forces (fred)
  0.00000000000000E+00  0.00000000000000E+00  8.35812148737180E-02
  0.00000000000000E+00  0.00000000000000E+00  9.11073221890146E-03
  0.00000000000000E+00  0.00000000000000E+00 -4.28335420403757E-02
  0.00000000000000E+00  0.00000000000000E+00 -4.28335420403757E-02
  0.00000000000000E+00  0.00000000000000E+00 -7.04673027816788E-03
 Total energy (etotal) [Ha]= -7.17173657427771E+01

 Difference of energy with previous step (new-old):
           Absolute (Ha)=-2.75980E-04
           Relative     =-3.84816E-06
 fconv : at Broyd/MD step   4, gradients have not converged yet.
  max grad (force/stress) = 5.6661E-03 > tolmxf= 1.0000E-04 ha/bohr (free atoms)

 Geometry Optimization Precondition:           0
[...]

 Pulay update with  7 previous iterations:
 mixing of old trial potential : alpha(m:m-4)=   1.40       4.78      -4.87     -0.746     -0.630

 ITER STEP NUMBER    26
 vtorho : nnsclo_now=  1, note that nnsclo,dbl_nnsclo,istep=  0 0 26
-P-0000  leave_test : synchronization done...
 vtorho: loop on k-points and spins done in parallel
 Total charge density [el/Bohr^3]
,     Maximum=    9.1472E-01  at reduced coord.    0.4500    0.9750    0.2083
,     Minimum=    8.1320E-05  at reduced coord.    0.0000    0.0000    0.0000
,  Integrated=    3.0000E+01
 ETOT 26  -56.313136932474    -2.213E-02 4.412E-04 1.334E+00
 scprqt: <Vxc>= -4.2861425E-01 hartree

 Pulay update with  7 previous iterations:
 mixing of old trial potential : alpha(m:m-4)=  0.573       1.34       4.24      -4.71      0.300E-01

 ITER STEP NUMBER    27
 vtorho : nnsclo_now=  1, note that nnsclo,dbl_nnsclo,istep=  0 0 27
-P-0000  leave_test : synchronization done...
 vtorho: loop on k-points and spins done in parallel
 Total charge density [el/Bohr^3]
,     Maximum=    9.1381E-01  at reduced coord.    0.4500    0.9750    0.2083
,     Minimum=    8.0114E-05  at reduced coord.    0.0000    0.0000    0.0000
,  Integrated=    3.0000E+01
 ETOT 27  -56.322498051455    -9.361E-03 3.593E-05 1.044E+00
 scprqt: <Vxc>= -4.2868661E-01 hartree

 Pulay update with  7 previous iterations:
 mixing of old trial potential : alpha(m:m-4)=   1.02     -0.627       1.12       3.62      -3.86

 ITER STEP NUMBER    28
 vtorho : nnsclo_now=  1, note that nnsclo,dbl_nnsclo,istep=  0 0 28
-P-0000  leave_test : synchronization done...
 vtorho: loop on k-points and spins done in parallel
 Total charge density [el/Bohr^3]
,     Maximum=    9.1570E-01  at reduced coord.    0.4500    0.9750    0.2083
,     Minimum=    8.0457E-05  at reduced coord.    0.0000    0.0000    0.0000
,  Integrated=    3.0000E+01
 ETOT 28  -56.325501377283    -3.003E-03 1.234E-04 1.793E+00
 scprqt: <Vxc>= -4.2865021E-01 hartree

 Pulay update with  7 previous iterations:
 mixing of old trial potential : alpha(m:m-4)=  -2.87       2.62      0.782      0.180       2.80

 ITER STEP NUMBER    29
 vtorho : nnsclo_now=  1, note that nnsclo,dbl_nnsclo,istep=  0 0 29
-P-0000  leave_test : synchronization done...
 vtorho: loop on k-points and spins done in parallel
 Total charge density [el/Bohr^3]
,     Maximum=    9.1565E-01  at reduced coord.    0.4500    0.9750    0.2083
,     Minimum=    8.0412E-05  at reduced coord.    0.0000    0.0000    0.0000
,  Integrated=    3.0000E+01
 ETOT 29  -56.323821269644     1.680E-03 1.420E-05 1.004E+00
 scprqt: <Vxc>= -4.2863135E-01 hartree

 Pulay update with  7 previous iterations:
 mixing of old trial potential : alpha(m:m-4)= -0.452      -1.07       2.52      -1.03      0.689

 ITER STEP NUMBER    30
 vtorho : nnsclo_now=  1, note that nnsclo,dbl_nnsclo,istep=  0 0 30
-P-0000  leave_test : synchronization done...
 vtorho: loop on k-points and spins done in parallel
 Total charge density [el/Bohr^3]
,     Maximum=    9.1893E-01  at reduced coord.    0.4500    0.9750    0.2083
,     Minimum=    8.0516E-05  at reduced coord.    0.0000    0.0000    0.0000
,  Integrated=    3.0000E+01
 ETOT 30  -56.311282038505     1.254E-02 6.065E-05 8.220E-01
 scprqt: <Vxc>= -4.2853735E-01 hartree

 Pulay update with  7 previous iterations:
 mixing of old trial potential : alpha(m:m-4)=   2.61      -1.65      -2.04       3.28      -2.28

 ITER STEP NUMBER    31
 vtorho : nnsclo_now=  1, note that nnsclo,dbl_nnsclo,istep=  0 0 31
-P-0000  leave_test : synchronization done...
 vtorho: loop on k-points and spins done in parallel
 Total charge density [el/Bohr^3]
,     Maximum=    9.1706E-01  at reduced coord.    0.4500    0.9750    0.2083
,     Minimum=    8.0924E-05  at reduced coord.    0.0000    0.0000    0.0000
,  Integrated=    3.0000E+01
 ETOT 31  -56.312534293466    -1.252E-03 2.993E-04 4.441E+00
 scprqt: <Vxc>= -4.2856830E-01 hartree

 Pulay update with  7 previous iterations:
 mixing of old trial potential : alpha(m:m-4)=  0.977       1.26     -0.757      -1.28       2.33

 ITER STEP NUMBER    32
 vtorho : nnsclo_now=  1, note that nnsclo,dbl_nnsclo,istep=  0 0 32
-P-0000  leave_test : synchronization done...
 vtorho: loop on k-points and spins done in parallel
 Total charge density [el/Bohr^3]
,     Maximum=    9.1917E-01  at reduced coord.    0.4500    0.9750    0.2083
,     Minimum=    8.0706E-05  at reduced coord.    0.0000    0.0000    0.0000
,  Integrated=    3.0000E+01
 ETOT 32  -56.310660396971     1.874E-03 9.692E-05 3.162E-01
 scprqt: <Vxc>= -4.2852303E-01 hartree

 Pulay update with  7 previous iterations:
 mixing of old trial potential : alpha(m:m-4)=  0.876      0.828E-01  0.146     -0.214     -0.242

 ITER STEP NUMBER    33
 vtorho : nnsclo_now=  1, note that nnsclo,dbl_nnsclo,istep=  0 0 33
-P-0000  leave_test : synchronization done...
 vtorho: loop on k-points and spins done in parallel
 Total charge density [el/Bohr^3]
,     Maximum=    9.1853E-01  at reduced coord.    0.4500    0.9750    0.2083
,     Minimum=    8.0517E-05  at reduced coord.    0.0000    0.0000    0.0000
,  Integrated=    3.0000E+01
 ETOT 33  -56.309670745317     9.897E-04 1.190E-05 1.238E-01
 scprqt: <Vxc>= -4.2854054E-01 hartree

 Pulay update with  7 previous iterations:
 mixing of old trial potential : alpha(m:m-4)=   1.60     -0.471      0.232E-01 -0.461      0.478

 ITER STEP NUMBER    34
 vtorho : nnsclo_now=  1, note that nnsclo,dbl_nnsclo,istep=  0 0 34
-P-0000  leave_test : synchronization done...
 vtorho: loop on k-points and spins done in parallel
 Total charge density [el/Bohr^3]
,     Maximum=    9.1917E-01  at reduced coord.    0.4500    0.9750    0.2083
,     Minimum=    7.9386E-05  at reduced coord.    0.0000    0.0000    0.0000
,  Integrated=    3.0000E+01
 ETOT 34  -56.300883620744     8.787E-03 2.186E-05 8.148E-02
 scprqt: <Vxc>= -4.2851456E-01 hartree

 Pulay update with  7 previous iterations:
 mixing of old trial potential : alpha(m:m-4)=  0.311       1.21     -0.568      0.169     -0.264

 ITER STEP NUMBER    35
 vtorho : nnsclo_now=  1, note that nnsclo,dbl_nnsclo,istep=  0 0 35
-P-0000  leave_test : synchronization done...
 vtorho: loop on k-points and spins done in parallel
 Total charge density [el/Bohr^3]
,     Maximum=    9.1867E-01  at reduced coord.    0.4500    0.9750    0.2083
,     Minimum=    7.9150E-05  at reduced coord.    0.0000    0.0000    0.0000
,  Integrated=    3.0000E+01
 ETOT 35  -56.300027196577     8.564E-04 1.174E-05 2.484E-02
 scprqt: <Vxc>= -4.2854937E-01 hartree

 Pulay update with  7 previous iterations:
 mixing of old trial potential : alpha(m:m-4)=  0.120E-01  0.218       1.46     -0.551     -0.197E-01

 ITER STEP NUMBER    36
 vtorho : nnsclo_now=  1, note that nnsclo,dbl_nnsclo,istep=  0 0 36
-P-0000  leave_test : synchronization done...
 vtorho: loop on k-points and spins done in parallel
 Total charge density [el/Bohr^3]
,     Maximum=    9.1940E-01  at reduced coord.    0.4500    0.9750    0.2083
,     Minimum=    8.0748E-05  at reduced coord.    0.0000    0.0000    0.0000
,  Integrated=    3.0000E+01
 ETOT 36  -56.317898999185    -1.787E-02 2.488E-05 9.915E-02
 scprqt: <Vxc>= -4.2853451E-01 hartree

 Pulay update with  7 previous iterations:
 mixing of old trial potential : alpha(m:m-4)= -0.144E-01  0.387     -0.121E-01   1.21     -0.334

 ITER STEP NUMBER    37
 vtorho : nnsclo_now=  1, note that nnsclo,dbl_nnsclo,istep=  0 0 37
-P-0000  leave_test : synchronization done...
 vtorho: loop on k-points and spins done in parallel
 Total charge density [el/Bohr^3]
,     Maximum=    9.1900E-01  at reduced coord.    0.4500    0.9750    0.2083
,     Minimum=    8.0350E-05  at reduced coord.    0.0000    0.0000    0.0000
,  Integrated=    3.0000E+01
 ETOT 37  -56.312848836705     5.050E-03 1.372E-05 8.431E-02
 scprqt: <Vxc>= -4.2853205E-01 hartree

 Pulay update with  7 previous iterations:
 mixing of old trial potential : alpha(m:m-4)=  0.828     -0.338      0.964     -0.543      0.500

 ITER STEP NUMBER    38
 vtorho : nnsclo_now=  1, note that nnsclo,dbl_nnsclo,istep=  0 0 38
-P-0000  leave_test : synchronization done...
 vtorho: loop on k-points and spins done in parallel
 Total charge density [el/Bohr^3]
,     Maximum=    9.1884E-01  at reduced coord.    0.4500    0.9750    0.2083
,     Minimum=    7.9975E-05  at reduced coord.    0.0000    0.0000    0.0000
,  Integrated=    3.0000E+01
 ETOT 38  -56.312676933771     1.719E-04 9.023E-06 4.425E-02
 scprqt: <Vxc>= -4.2853374E-01 hartree

 Pulay update with  7 previous iterations:
 mixing of old trial potential : alpha(m:m-4)=  0.801      0.159     -0.408      0.679     -0.256

 ITER STEP NUMBER    39
 vtorho : nnsclo_now=  1, note that nnsclo,dbl_nnsclo,istep=  0 0 39
-P-0000  leave_test : synchronization done...
 vtorho: loop on k-points and spins done in parallel
 Total charge density [el/Bohr^3]
,     Maximum=    9.1862E-01  at reduced coord.    0.4500    0.9750    0.2083
,     Minimum=    7.9991E-05  at reduced coord.    0.0000    0.0000    0.0000
,  Integrated=    3.0000E+01
 ETOT 39  -56.308489324444     4.188E-03 1.246E-05 1.703E-02
 scprqt: <Vxc>= -4.2854174E-01 hartree

 Pulay update with  7 previous iterations:
 mixing of old trial potential : alpha(m:m-4)=   1.13      0.401E-01  0.113     -0.732      0.437

 ITER STEP NUMBER    40
 vtorho : nnsclo_now=  1, note that nnsclo,dbl_nnsclo,istep=  0 0 40
-P-0000  leave_test : synchronization done...
 vtorho: loop on k-points and spins done in parallel
 Total charge density [el/Bohr^3]
,     Maximum=    9.1795E-01  at reduced coord.    0.4500    0.9750    0.2083
,     Minimum=    7.9601E-05  at reduced coord.    0.0000    0.0000    0.0000
,  Integrated=    3.0000E+01
 ETOT 40  -56.309381982328    -8.927E-04 2.912E-05 5.425E-02
 scprqt: <Vxc>= -4.2864346E-01 hartree

 Pulay update with  7 previous iterations:
 mixing of old trial potential : alpha(m:m-4)= -0.823E-02   1.16      0.112      0.392E-01 -0.664

 ITER STEP NUMBER    41
 vtorho : nnsclo_now=  1, note that nnsclo,dbl_nnsclo,istep=  0 0 41
-P-0000  leave_test : synchronization done...
 vtorho: loop on k-points and spins done in parallel
 Total charge density [el/Bohr^3]
,     Maximum=    9.1767E-01  at reduced coord.    0.4500    0.9750    0.2083
,     Minimum=    7.9985E-05  at reduced coord.    0.0000    0.0000    0.0000
,  Integrated=    3.0000E+01
 ETOT 41  -56.312845934211    -3.464E-03 1.138E-05 9.987E-02
 scprqt: <Vxc>= -4.2863438E-01 hartree

 Pulay update with  7 previous iterations:
 mixing of old trial potential : alpha(m:m-4)=  0.138     -0.739E-01  0.902      0.115      0.234

 ITER STEP NUMBER    42
 vtorho : nnsclo_now=  1, note that nnsclo,dbl_nnsclo,istep=  0 0 42
-P-0000  leave_test : synchronization done...
 vtorho: loop on k-points and spins done in parallel
 Total charge density [el/Bohr^3]
,     Maximum=    9.1833E-01  at reduced coord.    0.4500    0.9750    0.2083
,     Minimum=    8.0004E-05  at reduced coord.    0.0000    0.0000    0.0000
,  Integrated=    3.0000E+01
 ETOT 42  -56.310944955696     1.901E-03 5.620E-05 7.385E-02
 scprqt: <Vxc>= -4.2859975E-01 hartree

 Pulay update with  7 previous iterations:
 mixing of old trial potential : alpha(m:m-4)= -0.963E-01  0.218     -0.427E-01  0.867      0.126

 ITER STEP NUMBER    43
 vtorho : nnsclo_now=  1, note that nnsclo,dbl_nnsclo,istep=  0 0 43
-P-0000  leave_test : synchronization done...
 vtorho: loop on k-points and spins done in parallel
 Total charge density [el/Bohr^3]
,     Maximum=    9.1960E-01  at reduced coord.    0.4500    0.9750    0.2083
,     Minimum=    7.9991E-05  at reduced coord.    0.0000    0.0000    0.0000
,  Integrated=    3.0000E+01
 ETOT 43  -56.309080354622     1.865E-03 1.042E-05 4.509E-02
 scprqt: <Vxc>= -4.2855412E-01 hartree

 Pulay update with  7 previous iterations:
 mixing of old trial potential : alpha(m:m-4)=  0.385     -0.403      0.329     -0.130       1.52

 ITER STEP NUMBER    44
 vtorho : nnsclo_now=  1, note that nnsclo,dbl_nnsclo,istep=  0 0 44
-P-0000  leave_test : synchronization done...
 vtorho: loop on k-points and spins done in parallel
 Total charge density [el/Bohr^3]
,     Maximum=    9.1782E-01  at reduced coord.    0.4500    0.9750    0.2083
,     Minimum=    8.0053E-05  at reduced coord.    0.0000    0.0000    0.0000
,  Integrated=    3.0000E+01
 ETOT 44  -56.315978290333    -6.898E-03 7.410E-06 1.755E-01
 scprqt: <Vxc>= -4.2863355E-01 hartree

 Pulay update with  7 previous iterations:
 mixing of old trial potential : alpha(m:m-4)=  0.123      0.634     -0.612      0.716E-01 -0.340E-01

 ITER STEP NUMBER    45
 vtorho : nnsclo_now=  1, note that nnsclo,dbl_nnsclo,istep=  0 0 45
-P-0000  leave_test : synchronization done...
 vtorho: loop on k-points and spins done in parallel
 Total charge density [el/Bohr^3]
,     Maximum=    9.1990E-01  at reduced coord.    0.4500    0.9750    0.2083
,     Minimum=    7.9997E-05  at reduced coord.    0.0000    0.0000    0.0000
,  Integrated=    3.0000E+01
 ETOT 45  -56.309538403164     6.440E-03 3.985E-05 4.619E-02
 scprqt: <Vxc>= -4.2858091E-01 hartree

 Pulay update with  7 previous iterations:
 mixing of old trial potential : alpha(m:m-4)= -0.162     -0.183E-03  0.148E-01  0.258      0.149

 ITER STEP NUMBER    46
 vtorho : nnsclo_now=  1, note that nnsclo,dbl_nnsclo,istep=  0 0 46
-P-0000  leave_test : synchronization done...
 vtorho: loop on k-points and spins done in parallel
 Total charge density [el/Bohr^3]
,     Maximum=    9.1950E-01  at reduced coord.    0.4500    0.9750    0.2083
,     Minimum=    8.0155E-05  at reduced coord.    0.0000    0.0000    0.0000
,  Integrated=    3.0000E+01
 ETOT 46  -56.312491046446    -2.953E-03 8.557E-06 6.509E-02
 scprqt: <Vxc>= -4.2859766E-01 hartree

 Pulay update with  7 previous iterations:
 mixing of old trial potential : alpha(m:m-4)= -0.215      0.916E-01  0.159      0.130     -0.351E-01

 ITER STEP NUMBER    47
 vtorho : nnsclo_now=  1, note that nnsclo,dbl_nnsclo,istep=  0 0 47
-P-0000  leave_test : synchronization done...
 vtorho: loop on k-points and spins done in parallel
 Total charge density [el/Bohr^3]
,     Maximum=    9.1894E-01  at reduced coord.    0.4500    0.9750    0.2083
,     Minimum=    8.0114E-05  at reduced coord.    0.0000    0.0000    0.0000
,  Integrated=    3.0000E+01
 ETOT 47  -56.316095463447    -3.604E-03 8.511E-06 5.408E-02
 scprqt: <Vxc>= -4.2860055E-01 hartree

 Pulay update with  7 previous iterations:
 mixing of old trial potential : alpha(m:m-4)=   2.84     -0.893     -0.609      -4.10      -1.35

 ITER STEP NUMBER    48
 vtorho : nnsclo_now=  1, note that nnsclo,dbl_nnsclo,istep=  0 0 48
-P-0000  leave_test : synchronization done...
 vtorho: loop on k-points and spins done in parallel
 Total charge density [el/Bohr^3]
,     Maximum=    9.2023E-01  at reduced coord.    0.4500    0.9750    0.2083
,     Minimum=    7.9922E-05  at reduced coord.    0.0000    0.0000    0.0000
,  Integrated=    3.0000E+01
 ETOT 48  -56.312319135223     3.776E-03 2.153E-05 2.340E-01
 scprqt: <Vxc>= -4.2854347E-01 hartree

 Pulay update with  7 previous iterations:
 mixing of old trial potential : alpha(m:m-4)=  0.919      0.546      -1.36      0.156      -1.81

 ITER STEP NUMBER    49
 vtorho : nnsclo_now=  1, note that nnsclo,dbl_nnsclo,istep=  0 0 49
-P-0000  leave_test : synchronization done...
 vtorho: loop on k-points and spins done in parallel
 Total charge density [el/Bohr^3]
,     Maximum=    9.1930E-01  at reduced coord.    0.4500    0.9750    0.2083
,     Minimum=    7.9920E-05  at reduced coord.    0.0000    0.0000    0.0000
,  Integrated=    3.0000E+01
 ETOT 49  -56.314281769641    -1.963E-03 2.705E-05 9.444E-02
 scprqt: <Vxc>= -4.2860654E-01 hartree

 Pulay update with  7 previous iterations:
 mixing of old trial potential : alpha(m:m-4)=  0.476       1.13     -0.551      -2.21       1.39

 ITER STEP NUMBER    50
 vtorho : nnsclo_now=  1, note that nnsclo,dbl_nnsclo,istep=  0 0 50
-P-0000  leave_test : synchronization done...
 vtorho: loop on k-points and spins done in parallel
 Total charge density [el/Bohr^3]
,     Maximum=    9.1873E-01  at reduced coord.    0.4500    0.9750    0.2083
,     Minimum=    7.9430E-05  at reduced coord.    0.0000    0.0000    0.0000
,  Integrated=    3.0000E+01
 ETOT 50  -56.317662882054    -3.381E-03 5.404E-06 2.830E-02
 scprqt: <Vxc>= -4.2860855E-01 hartree

 Pulay update with  7 previous iterations:
 mixing of old trial potential : alpha(m:m-4)=   1.87      -1.92      0.698      -2.62      0.868

 ITER STEP NUMBER    51
 vtorho : nnsclo_now=  1, note that nnsclo,dbl_nnsclo,istep=  0 0 51
-P-0000  leave_test : synchronization done...
 vtorho: loop on k-points and spins done in parallel
 Total charge density [el/Bohr^3]
,     Maximum=    9.1810E-01  at reduced coord.    0.4500    0.9750    0.2083
,     Minimum=    7.9336E-05  at reduced coord.    0.0000    0.0000    0.0000
,  Integrated=    3.0000E+01
 ETOT 51  -56.319065332329    -1.402E-03 7.564E-06 8.252E-02
 scprqt: <Vxc>= -4.2862450E-01 hartree

 Pulay update with  7 previous iterations:
 mixing of old trial potential : alpha(m:m-4)=   1.21     -0.366E-01  -1.95       2.06      -2.60

 ITER STEP NUMBER    52
 vtorho : nnsclo_now=  1, note that nnsclo,dbl_nnsclo,istep=  0 0 52
-P-0000  leave_test : synchronization done...
 vtorho: loop on k-points and spins done in parallel
 Total charge density [el/Bohr^3]
,     Maximum=    9.1923E-01  at reduced coord.    0.4500    0.9750    0.2083
,     Minimum=    7.9619E-05  at reduced coord.    0.0000    0.0000    0.0000
,  Integrated=    3.0000E+01
 ETOT 52  -56.315783542820     3.282E-03 4.036E-05 3.397E-02
 scprqt: <Vxc>= -4.2856956E-01 hartree

 Pulay update with  7 previous iterations:
 mixing of old trial potential : alpha(m:m-4)=   1.17      0.266     -0.130      -1.04      0.912

 ITER STEP NUMBER    53
 vtorho : nnsclo_now=  1, note that nnsclo,dbl_nnsclo,istep=  0 0 53
-P-0000  leave_test : synchronization done...
 vtorho: loop on k-points and spins done in parallel
 Total charge density [el/Bohr^3]
,     Maximum=    9.1819E-01  at reduced coord.    0.4500    0.9750    0.2083
,     Minimum=    7.9354E-05  at reduced coord.    0.0000    0.0000    0.0000
,  Integrated=    3.0000E+01
 ETOT 53  -56.318016949234    -2.233E-03 7.916E-06 3.713E-01
 scprqt: <Vxc>= -4.2863012E-01 hartree

 Pulay update with  7 previous iterations:
 mixing of old trial potential : alpha(m:m-4)=  0.466      0.104      0.651     -0.328E-01  -1.73

 ITER STEP NUMBER    54
 vtorho : nnsclo_now=  1, note that nnsclo,dbl_nnsclo,istep=  0 0 54
-P-0000  leave_test : synchronization done...
 vtorho: loop on k-points and spins done in parallel
 Total charge density [el/Bohr^3]
,     Maximum=    9.1814E-01  at reduced coord.    0.4500    0.9750    0.2083
,     Minimum=    7.8370E-05  at reduced coord.    0.0000    0.0000    0.0000
,  Integrated=    3.0000E+01
 ETOT 54  -56.319059078972    -1.042E-03 4.074E-06 1.818E-01
 scprqt: <Vxc>= -4.2861326E-01 hartree

 Pulay update with  7 previous iterations:
 mixing of old trial potential : alpha(m:m-4)=  0.488      0.541     -0.387      0.804E-01  0.200E-01

 ITER STEP NUMBER    55
 vtorho : nnsclo_now=  1, note that nnsclo,dbl_nnsclo,istep=  0 0 55
-P-0000  leave_test : synchronization done...
 vtorho: loop on k-points and spins done in parallel
 Total charge density [el/Bohr^3]
,     Maximum=    9.1864E-01  at reduced coord.    0.4500    0.9750    0.2083
,     Minimum=    8.0297E-05  at reduced coord.    0.0000    0.0000    0.0000
,  Integrated=    3.0000E+01
 ETOT 55  -56.316534520485     2.525E-03 1.604E-05 1.053E-01
 scprqt: <Vxc>= -4.2860342E-01 hartree

 Pulay update with  7 previous iterations:
 mixing of old trial potential : alpha(m:m-4)= -0.443E-01  0.523      0.637     -0.535     -0.112

 ITER STEP NUMBER    56
 vtorho : nnsclo_now=  1, note that nnsclo,dbl_nnsclo,istep=  0 0 56
[c559-001.stampede.tacc.utexas.edu:mpirun_rsh][signal_processor] Caught signal 15, killing job
