
.Version 7.4.3 of ABINIT 
.(MPI version, prepared for a x86_64_linux_intel13.1 computer) 

.Copyright (C) 1998-2013 ABINIT group . 
 ABINIT comes with ABSOLUTELY NO WARRANTY.
 It is free software, and you are welcome to redistribute it
 under certain conditions (GNU General Public License,
 see ~abinit/COPYING or http://www.gnu.org/copyleft/gpl.txt).

 ABINIT is a project of the Universite Catholique de Louvain,
 Corning Inc. and other collaborators, see ~abinit/doc/developers/contributors.txt .
 Please read ~abinit/doc/users/acknowledgments.html for suggested
 acknowledgments of the ABINIT effort.
 For more information, see http://www.abinit.org .

.Starting date : Thu  7 Nov 2013.
- ( at 11h17 )
  
- input  file    -> BTO_structopt.in
- output file    -> BTO_structopt.out
- root for input  files -> in_structopt
- root for output files -> out_structopt


 DATASET    1 : space group P4 m m (# 99); Bravais tP (primitive tetrag.)
================================================================================
 Values of the parameters that define the memory need for DATASET  1.
   intxc =         0  ionmov =         2    iscf =         7 xclevel =         1
  lmnmax =         2   lnmax =         2   mband =        16  mffmem =         1
P  mgfft =        32   mkmem =         1 mpssoang=         3     mpw =       441
  mqgrid =      3001   natom =         5    nfft =      8192    nkpt =         6
  nloalg =         4  nspden =         1 nspinor =         1  nsppol =         1
    nsym =         8  n1xccc =      2501  ntypat =         3  occopt =         1
================================================================================
P This job should need less than                       4.659 Mbytes of memory.
  Rough estimation (10% accuracy) of disk space for files :
_ WF disk file :      2.586 Mbytes ; DEN or POT disk file :      0.065 Mbytes.
================================================================================

--------------------------------------------------------------------------------
------------- Echo of variables that govern the present computation ------------
--------------------------------------------------------------------------------
-
- outvars: echo of selected default values                                      
-   accesswff0 =  0 , fftalg0 =312 , wfoptalg0 =  0
-
- outvars: echo of global parameters not present in the input file              
-  max_nthreads =    0
-
 -outvars: echo values of preprocessed input variables --------
        accesswff           1
            acell      7.4833154862E+00  7.4833154862E+00  7.5589045315E+00 Bohr
              amu      1.37327000E+02  4.78800000E+01  1.59994000E+01
           diemac      4.00000000E+03
             ecut      2.00000000E+01 Hartree
           fftalg         401
      fft_opt_lob           2
           iatfix        1
           ionmov           2
           iprcch           6
           jdtset        1
              kpt      1.25000000E-01  1.25000000E-01  1.25000000E-01
                       3.75000000E-01  1.25000000E-01  1.25000000E-01
                       3.75000000E-01  3.75000000E-01  1.25000000E-01
                       1.25000000E-01  1.25000000E-01  3.75000000E-01
                       3.75000000E-01  1.25000000E-01  3.75000000E-01
                       3.75000000E-01  3.75000000E-01  3.75000000E-01
         kptrlatt        4    0    0      0    4    0      0    0    4
          kptrlen      2.99332619E+01
P           mkmem           1
           natfix           1
            natom           5
            nband          16
           ndtset           1
            ngfft          32      32      32
             nkpt           6
            npfft           4
-           npkpt           6
            nstep         150
             nsym           8
            ntime          25
           ntypat           3
              occ      2.000000  2.000000  2.000000  2.000000  2.000000  2.000000
                       2.000000  2.000000  2.000000  2.000000  2.000000  2.000000
                       2.000000  2.000000  2.000000  0.000000
           ortalg          -2
        paral_kgb           1
           prteig           0
        restartxf          -1
           shiftk      5.00000000E-01  5.00000000E-01  5.00000000E-01
          spgroup          99
           symrel      1  0  0   0  1  0   0  0  1       1  0  0   0 -1  0   0  0  1
                      -1  0  0   0 -1  0   0  0  1      -1  0  0   0  1  0   0  0  1
                       0  1  0   1  0  0   0  0  1       0  1  0  -1  0  0   0  0  1
                       0 -1  0  -1  0  0   0  0  1       0 -1  0   1  0  0   0  0  1
           toldfe      1.00000000E-07 Hartree
           tolmxf      1.00000000E-05
            typat      1  2  3  3  3
         wfoptalg          14
              wtk        0.12500    0.25000    0.12500    0.12500    0.25000    0.12500
           xangst      0.0000000000E+00  0.0000000000E+00  0.0000000000E+00
                       1.9800000000E+00  1.9800000000E+00  2.0200000000E+00
                       0.0000000000E+00  1.9800000000E+00  2.0000000000E+00
                       1.9800000000E+00  0.0000000000E+00  2.0000000000E+00
                       1.9800000000E+00  1.9800000000E+00  0.0000000000E+00
            xcart      0.0000000000E+00  0.0000000000E+00  0.0000000000E+00
                       3.7416577431E+00  3.7416577431E+00  3.8172467884E+00
                       0.0000000000E+00  3.7416577431E+00  3.7794522658E+00
                       3.7416577431E+00  0.0000000000E+00  3.7794522658E+00
                       3.7416577431E+00  3.7416577431E+00  0.0000000000E+00
             xred      0.0000000000E+00  0.0000000000E+00  0.0000000000E+00
                       5.0000000000E-01  5.0000000000E-01  5.0500000000E-01
                       0.0000000000E+00  5.0000000000E-01  5.0000000000E-01
                       5.0000000000E-01  0.0000000000E+00  5.0000000000E-01
                       5.0000000000E-01  5.0000000000E-01  0.0000000000E+00
            znucl       56.00000   22.00000    8.00000

================================================================================

 chkinp: Checking input parameters for consistency, jdtset=   1.

================================================================================
== DATASET  1 ==================================================================
-   nproc =   24

 Exchange-correlation functional for the present dataset will be:
  LDA: new Teter (4/93) with spin-polarized option - ixc=1
 Citation for XC functional:
  S. Goedecker, M. Teter, J. Huetter, PRB 54, 1703 (1996)
 
 Real(R)+Recip(G) space primitive vectors, cartesian coordinates (Bohr,Bohr^-1):
 R(1)=  7.4833155  0.0000000  0.0000000  G(1)=  0.1336306  0.0000000  0.0000000
 R(2)=  0.0000000  7.4833155  0.0000000  G(2)=  0.0000000  0.1336306  0.0000000
 R(3)=  0.0000000  0.0000000  7.5589045  G(3)=  0.0000000  0.0000000  0.1322943
 Unit cell volume ucvol=  4.2329873E+02 bohr^3
 Angles (23,13,12)=  9.00000000E+01  9.00000000E+01  9.00000000E+01 degrees

 getcut: wavevector=  0.0000  0.0000  0.0000  ngfft=  32  32  32
         ecut(hartree)=     20.000   => boxcut(ratio)=   2.10286

--- Pseudopotential description ------------------------------------------------
- pspini: atom type   1  psp file is ../psps/56ba_LDA_TM.pspnc
- pspatm: opening atomic psp file    ../psps/56ba_LDA_TM.pspnc
-  Troullier-Martins psp for element  Ba        Thu Oct 27 17:45:27 EDT 1994
- 56.00000   8.00000    940714                znucl, zion, pspdat
    1    1    2    0      2001   0.00000      pspcod,pspxc,lmax,lloc,mmax,r2well
    0   3.136   6.531    0   3.3606525        l,e99.0,e99.9,nproj,rcpsp
   0.00000000   0.00000000   0.00000000   0.00000000     rms, ekb1, ekb2, epsatm
    1   3.684   8.871    1   2.4896211        l,e99.0,e99.9,nproj,rcpsp
   0.00000000   0.00000000   0.00000000   0.00000000     rms, ekb1, ekb2, epsatm
    2   4.356   5.823    1   2.7860712        l,e99.0,e99.9,nproj,rcpsp
   0.00000000   0.00000000   0.00000000   0.00000000     rms, ekb1, ekb2, epsatm
    2.29351246205421    0.45434617287240    4.78340519141650   rchrg,fchrg,qchrg
 pspatm: epsatm=  174.17887550
         --- l  ekb(1:nproj) -->
             1   -2.337834
             2   -1.872976
 pspatm: atomic psp has been read  and splines computed

- pspini: atom type   2  psp file is ../psps/22ti_LDA_TM.pspnc
- pspatm: opening atomic psp file    ../psps/22ti_LDA_TM.pspnc
-  Troullier-Martins psp for element  Ti        Thu Oct 27 17:33:40 EDT 1994
- 22.00000   4.00000    940714                znucl, zion, pspdat
    1    1    2    0      2001   0.00000      pspcod,pspxc,lmax,lloc,mmax,r2well
    0   5.166   8.509    0   2.4203472        l,e99.0,e99.9,nproj,rcpsp
   0.00000000   0.00000000   0.00000000   0.00000000     rms, ekb1, ekb2, epsatm
    1   2.285   3.944    1   2.9934301        l,e99.0,e99.9,nproj,rcpsp
   0.00000000   0.00000000   0.00000000   0.00000000     rms, ekb1, ekb2, epsatm
    2  20.947  27.069    1   1.9326638        l,e99.0,e99.9,nproj,rcpsp
   0.00000000   0.00000000   0.00000000   0.00000000     rms, ekb1, ekb2, epsatm
    2.82741504495369    0.09256629068341    1.82586447305099   rchrg,fchrg,qchrg
 pspatm: epsatm=   66.67453488
         --- l  ekb(1:nproj) -->
             1    0.915537
             2   -8.015692
 pspatm: atomic psp has been read  and splines computed

- pspini: atom type   3  psp file is ../psps/8o_LDA_TM.pspnc
- pspatm: opening atomic psp file    ../psps/8o_LDA_TM.pspnc
-  Troullier-Martins psp for element  O         Thu Oct 27 17:29:57 EDT 1994
-  8.00000   6.00000    940714                znucl, zion, pspdat
    1    1    1    1      2001   0.00000      pspcod,pspxc,lmax,lloc,mmax,r2well
    0   5.480  16.893    1   1.4482335        l,e99.0,e99.9,nproj,rcpsp
   0.00000000   0.00000000   0.00000000   0.00000000     rms, ekb1, ekb2, epsatm
    1  20.911  28.075    0   1.4482335        l,e99.0,e99.9,nproj,rcpsp
   0.00000000   0.00000000   0.00000000   0.00000000     rms, ekb1, ekb2, epsatm
    0.56990156784787    3.95561236318184    0.63894027514378   rchrg,fchrg,qchrg
 pspatm: epsatm=    1.57752239
         --- l  ekb(1:nproj) -->
             0    5.670783
 pspatm: atomic psp has been read  and splines computed

   7.36757933E+03                                ecore*ucvol(ha*bohr**3)
--------------------------------------------------------------------------------

P newkpt: treating     16 bands with npw=     441 for ikpt=   1 by node    0
P newkpt: treating     16 bands with npw=     439 for ikpt=   2 by node    1
P newkpt: treating     16 bands with npw=     435 for ikpt=   3 by node    2
P newkpt: treating     16 bands with npw=     438 for ikpt=   4 by node    3
P newkpt: treating     16 bands with npw=     431 for ikpt=   5 by node    4
P newkpt: treating     16 bands with npw=     436 for ikpt=   6 by node    5
 
_setup2: Arith. and geom. avg. npw (full set) are     436.250     436.236

================================================================================

=== [ionmov= 2] Broyden-Fletcher-Goldfard-Shanno method (forces)            
================================================================================

--- Iteration: ( 1/40) Internal Cycle: (1/1)
--------------------------------------------------------------------------------

---SELF-CONSISTENT-FIELD CONVERGENCE--------------------------------------------

---OUTPUT-----------------------------------------------------------------------

 Cartesian coordinates (xcart) [bohr]
  0.00000000000000E+00  0.00000000000000E+00  0.00000000000000E+00
  3.74165774311357E+00  3.74165774311357E+00  3.81724678842900E+00
  0.00000000000000E+00  3.74165774311357E+00  3.77945226577129E+00
  3.74165774311357E+00  0.00000000000000E+00  3.77945226577129E+00
  3.74165774311357E+00  3.74165774311357E+00  0.00000000000000E+00
 Reduced coordinates (xred)
  0.00000000000000E+00  0.00000000000000E+00  0.00000000000000E+00
  5.00000000000000E-01  5.00000000000000E-01  5.05000000000000E-01
  0.00000000000000E+00  5.00000000000000E-01  5.00000000000000E-01
  5.00000000000000E-01  0.00000000000000E+00  5.00000000000000E-01
  5.00000000000000E-01  5.00000000000000E-01  0.00000000000000E+00
 Cartesian forces (fcart) [Ha/bohr]; max,rms= 1.45573E-03 5.09945E-04 (free atoms)
  0.00000000000000E+00  0.00000000000000E+00  1.82553036030492E-03
  0.00000000000000E+00  0.00000000000000E+00 -1.45572794141876E-03
  0.00000000000000E+00  0.00000000000000E+00 -5.22390241355392E-04
  0.00000000000000E+00  0.00000000000000E+00 -5.22390241355392E-04
  0.00000000000000E+00  0.00000000000000E+00  6.74978063824622E-04
 Reduced forces (fred)
  0.00000000000000E+00  0.00000000000000E+00 -1.38539583110528E-02
  0.00000000000000E+00  0.00000000000000E+00  1.09487599350080E-02
  0.00000000000000E+00  0.00000000000000E+00  3.89374936453947E-03
  0.00000000000000E+00  0.00000000000000E+00  3.89374936453947E-03
  0.00000000000000E+00  0.00000000000000E+00 -5.15704334341119E-03
 Total energy (etotal) [Ha]= -7.13320798892185E+01

--- Iteration: ( 2/40) Internal Cycle: (1/1)
--------------------------------------------------------------------------------

---SELF-CONSISTENT-FIELD CONVERGENCE--------------------------------------------

---OUTPUT-----------------------------------------------------------------------

 Cartesian coordinates (xcart) [bohr]
  0.00000000000000E+00  0.00000000000000E+00  0.00000000000000E+00
  3.74165774311357E+00  3.74165774311357E+00  3.81579106048758E+00
  0.00000000000000E+00  3.74165774311357E+00  3.77892987552993E+00
  3.74165774311357E+00  0.00000000000000E+00  3.77892987552993E+00
  3.74165774311357E+00  3.74165774311357E+00  6.74978063824622E-04
 Reduced coordinates (xred)
  0.00000000000000E+00  0.00000000000000E+00  0.00000000000000E+00
  5.00000000000000E-01  5.00000000000000E-01  5.04807415487873E-01
  0.00000000000000E+00  5.00000000000000E-01  4.99930890747571E-01
  5.00000000000000E-01  0.00000000000000E+00  4.99930890747571E-01
  5.00000000000000E-01  5.00000000000000E-01  8.92957519185491E-05
 Cartesian forces (fcart) [Ha/bohr]; max,rms= 1.37585E-03 4.55263E-04 (free atoms)
  0.00000000000000E+00  0.00000000000000E+00  1.73342963091999E-03
  0.00000000000000E+00  0.00000000000000E+00 -1.37585122948326E-03
  0.00000000000000E+00  0.00000000000000E+00 -4.22394816146563E-04
  0.00000000000000E+00  0.00000000000000E+00 -4.22394816146563E-04
  0.00000000000000E+00  0.00000000000000E+00  4.87211230856393E-04
 Reduced forces (fred)
  0.00000000000000E+00  0.00000000000000E+00 -1.30784298634087E-02
  0.00000000000000E+00  0.00000000000000E+00  1.04243273221320E-02
  0.00000000000000E+00  0.00000000000000E+00  3.21724131873296E-03
  0.00000000000000E+00  0.00000000000000E+00  3.21724131873296E-03
  0.00000000000000E+00  0.00000000000000E+00 -3.65838395187621E-03
 Total energy (etotal) [Ha]= -7.13320828342805E+01

 Difference of energy with previous step (new-old):
           Absolute (Ha)=-2.94506E-06
           Relative     =-4.12866E-08

--- Iteration: ( 3/40) Internal Cycle: (1/1)
--------------------------------------------------------------------------------

---SELF-CONSISTENT-FIELD CONVERGENCE--------------------------------------------

---OUTPUT-----------------------------------------------------------------------

 Cartesian coordinates (xcart) [bohr]
  0.00000000000000E+00  0.00000000000000E+00  0.00000000000000E+00
  3.74165774311357E+00  3.74165774311357E+00  3.80257269919872E+00
  0.00000000000000E+00  3.74165774311357E+00  3.77482701501964E+00
  3.74165774311357E+00  0.00000000000000E+00  3.77482701501964E+00
  3.74165774311357E+00  3.74165774311357E+00  5.45035834519140E-03
 Reduced coordinates (xred)
  0.00000000000000E+00  0.00000000000000E+00  0.00000000000000E+00
  5.00000000000000E-01  5.00000000000000E-01  5.03058701605630E-01
  0.00000000000000E+00  5.00000000000000E-01  4.99388105679554E-01
  5.00000000000000E-01  0.00000000000000E+00  4.99388105679554E-01
  5.00000000000000E-01  5.00000000000000E-01  7.21051353730899E-04
 Cartesian forces (fcart) [Ha/bohr]; max,rms= 7.81321E-04 3.27127E-04 (free atoms)
  0.00000000000000E+00  0.00000000000000E+00  7.51998720110096E-04
  0.00000000000000E+00  0.00000000000000E+00 -6.60247679252643E-04
  0.00000000000000E+00  0.00000000000000E+00  3.44785018553741E-04
  0.00000000000000E+00  0.00000000000000E+00  3.44785018553741E-04
  0.00000000000000E+00  0.00000000000000E+00 -7.81321077964935E-04
 Reduced forces (fred)
  0.00000000000000E+00  0.00000000000000E+00 -5.59493200141444E-03
  0.00000000000000E+00  0.00000000000000E+00  5.08010370638325E-03
  0.00000000000000E+00  0.00000000000000E+00 -2.51684250741388E-03
  0.00000000000000E+00  0.00000000000000E+00 -2.51684250741388E-03
  0.00000000000000E+00  0.00000000000000E+00  5.99528596855885E-03
 Total energy (etotal) [Ha]= -7.13320956746362E+01

 Difference of energy with previous step (new-old):
           Absolute (Ha)=-1.28404E-05
           Relative     =-1.80008E-07

--- Iteration: ( 4/40) Internal Cycle: (1/1)
--------------------------------------------------------------------------------

---SELF-CONSISTENT-FIELD CONVERGENCE--------------------------------------------

---OUTPUT-----------------------------------------------------------------------

 Cartesian coordinates (xcart) [bohr]
  0.00000000000000E+00  0.00000000000000E+00  0.00000000000000E+00
  3.74165774311357E+00  3.74165774311357E+00  3.79993314372581E+00
  0.00000000000000E+00  3.74165774311357E+00  3.77457386735415E+00
  3.74165774311357E+00  0.00000000000000E+00  3.77457386735415E+00
  3.74165774311357E+00  3.74165774311357E+00  5.36347256863267E-03
 Reduced coordinates (xred)
  0.00000000000000E+00  0.00000000000000E+00  0.00000000000000E+00
  5.00000000000000E-01  5.00000000000000E-01  5.02709503456362E-01
  0.00000000000000E+00  5.00000000000000E-01  4.99354615685808E-01
  5.00000000000000E-01  0.00000000000000E+00  4.99354615685808E-01
  5.00000000000000E-01  5.00000000000000E-01  7.09556860554518E-04
 Cartesian forces (fcart) [Ha/bohr]; max,rms= 8.48943E-04 3.31037E-04 (free atoms)
  0.00000000000000E+00  0.00000000000000E+00  5.98251187459404E-04
  0.00000000000000E+00  0.00000000000000E+00 -5.34697471395201E-04
  0.00000000000000E+00  0.00000000000000E+00  3.92694410638449E-04
  0.00000000000000E+00  0.00000000000000E+00  3.92694410638449E-04
  0.00000000000000E+00  0.00000000000000E+00 -8.48942537341101E-04
 Reduced forces (fred)
  0.00000000000000E+00  0.00000000000000E+00 -4.47291694671153E-03
  0.00000000000000E+00  0.00000000000000E+00  4.09093380470962E-03
  0.00000000000000E+00  0.00000000000000E+00 -2.91913289491033E-03
  0.00000000000000E+00  0.00000000000000E+00 -2.91913289491033E-03
  0.00000000000000E+00  0.00000000000000E+00  6.46628225770298E-03
 Total energy (etotal) [Ha]= -7.13320971383446E+01

 Difference of energy with previous step (new-old):
           Absolute (Ha)=-1.46371E-06
           Relative     =-2.05196E-08

--- Iteration: ( 5/40) Internal Cycle: (1/1)
--------------------------------------------------------------------------------

---SELF-CONSISTENT-FIELD CONVERGENCE--------------------------------------------

---OUTPUT-----------------------------------------------------------------------

 Cartesian coordinates (xcart) [bohr]
  0.00000000000000E+00  0.00000000000000E+00  0.00000000000000E+00
  3.74165774311357E+00  3.74165774311357E+00  3.78800416130119E+00
  0.00000000000000E+00  3.74165774311357E+00  3.77475936693888E+00
  3.74165774311357E+00  0.00000000000000E+00  3.77475936693888E+00
  3.74165774311357E+00  3.74165774311357E+00  2.50037913529336E-03
 Reduced coordinates (xred)
  0.00000000000000E+00  0.00000000000000E+00  0.00000000000000E+00
  5.00000000000000E-01  5.00000000000000E-01  5.01131367051167E-01
  0.00000000000000E+00  5.00000000000000E-01  4.99379156223918E-01
  5.00000000000000E-01  0.00000000000000E+00  4.99379156223918E-01
  5.00000000000000E-01  5.00000000000000E-01  3.30785912807805E-04
 Cartesian forces (fcart) [Ha/bohr]; max,rms= 6.90094E-04 2.58204E-04 (free atoms)
  0.00000000000000E+00  0.00000000000000E+00  1.85632512379555E-05
  0.00000000000000E+00  0.00000000000000E+00 -1.16235807854375E-04
  0.00000000000000E+00  0.00000000000000E+00  3.93883436533200E-04
  0.00000000000000E+00  0.00000000000000E+00  3.93883436533200E-04
  0.00000000000000E+00  0.00000000000000E+00 -6.90094316449980E-04
 Reduced forces (fred)
  0.00000000000000E+00  0.00000000000000E+00 -7.57662818857308E-05
  0.00000000000000E+00  0.00000000000000E+00  9.43166936734961E-04
  0.00000000000000E+00  0.00000000000000E+00 -2.91277573129335E-03
  0.00000000000000E+00  0.00000000000000E+00 -2.91277573129335E-03
  0.00000000000000E+00  0.00000000000000E+00  5.28090861782254E-03
 Total energy (etotal) [Ha]= -7.13321035644904E+01

 Difference of energy with previous step (new-old):
           Absolute (Ha)=-6.42615E-06
           Relative     =-9.00877E-08

--- Iteration: ( 6/40) Internal Cycle: (1/1)
--------------------------------------------------------------------------------

---SELF-CONSISTENT-FIELD CONVERGENCE--------------------------------------------

---OUTPUT-----------------------------------------------------------------------

 Cartesian coordinates (xcart) [bohr]
  0.00000000000000E+00  0.00000000000000E+00  0.00000000000000E+00
  3.74165774311357E+00  3.74165774311357E+00  3.78093468944521E+00
  0.00000000000000E+00  3.74165774311357E+00  3.77590121994836E+00
  3.74165774311357E+00  0.00000000000000E+00  3.77590121994836E+00
  3.74165774311357E+00  3.74165774311357E+00 -9.80442191615807E-04
 Reduced coordinates (xred)
  0.00000000000000E+00  0.00000000000000E+00  0.00000000000000E+00
  5.00000000000000E-01  5.00000000000000E-01  5.00196116205429E-01
  0.00000000000000E+00  5.00000000000000E-01  4.99530216870962E-01
  5.00000000000000E-01  0.00000000000000E+00  4.99530216870962E-01
  5.00000000000000E-01  5.00000000000000E-01 -1.29706915535779E-04
 Cartesian forces (fcart) [Ha/bohr]; max,rms= 2.30633E-04 1.10056E-04 (free atoms)
  0.00000000000000E+00  0.00000000000000E+00 -2.48442283033801E-04
  0.00000000000000E+00  0.00000000000000E+00  5.75441000783300E-05
  0.00000000000000E+00  0.00000000000000E+00  2.10765677357138E-04
  0.00000000000000E+00  0.00000000000000E+00  2.10765677357138E-04
  0.00000000000000E+00  0.00000000000000E+00 -2.30633171758805E-04
 Reduced forces (fred)
  0.00000000000000E+00  0.00000000000000E+00  1.93015897436616E-03
  0.00000000000000E+00  0.00000000000000E+00 -3.82762883530453E-04
  0.00000000000000E+00  0.00000000000000E+00 -1.54095015835334E-03
  0.00000000000000E+00  0.00000000000000E+00 -1.54095015835334E-03
  0.00000000000000E+00  0.00000000000000E+00  1.79554160244684E-03
 Total energy (etotal) [Ha]= -7.13321062446737E+01

 Difference of energy with previous step (new-old):
           Absolute (Ha)=-2.68018E-06
           Relative     =-3.75733E-08

--- Iteration: ( 7/40) Internal Cycle: (1/1)
--------------------------------------------------------------------------------

---SELF-CONSISTENT-FIELD CONVERGENCE--------------------------------------------

---OUTPUT-----------------------------------------------------------------------

 Cartesian coordinates (xcart) [bohr]
  0.00000000000000E+00  0.00000000000000E+00  0.00000000000000E+00
  3.74165774311357E+00  3.74165774311357E+00  3.78057359878235E+00
  0.00000000000000E+00  3.74165774311357E+00  3.77661999967280E+00
  3.74165774311357E+00  0.00000000000000E+00  3.77661999967280E+00
  3.74165774311357E+00  3.74165774311357E+00 -2.18037030785179E-03
 Reduced coordinates (xred)
  0.00000000000000E+00  0.00000000000000E+00  0.00000000000000E+00
  5.00000000000000E-01  5.00000000000000E-01  5.00148345968174E-01
  0.00000000000000E+00  5.00000000000000E-01  4.99625307333005E-01
  5.00000000000000E-01  0.00000000000000E+00  4.99625307333005E-01
  5.00000000000000E-01  5.00000000000000E-01 -2.88450568300382E-04
 Cartesian forces (fcart) [Ha/bohr]; max,rms= 1.36564E-03 4.95353E-04 (free atoms)
  0.00000000000000E+00  0.00000000000000E+00 -2.50375250855991E-04
  0.00000000000000E+00  0.00000000000000E+00  1.65376596696331E-04
  0.00000000000000E+00  0.00000000000000E+00  7.25319040297089E-04
  0.00000000000000E+00  0.00000000000000E+00  7.25319040297089E-04
  0.00000000000000E+00  0.00000000000000E+00 -1.36563942643452E-03
 Reduced forces (fred)
  0.00000000000000E+00  0.00000000000000E+00  2.00491998929430E-03
  0.00000000000000E+00  0.00000000000000E+00 -1.13770853516614E-03
  0.00000000000000E+00  0.00000000000000E+00 -5.37026000950294E-03
  0.00000000000000E+00  0.00000000000000E+00 -5.37026000950294E-03
  0.00000000000000E+00  0.00000000000000E+00  1.04350954199419E-02
 Total energy (etotal) [Ha]= -7.13321063320191E+01

 Difference of energy with previous step (new-old):
           Absolute (Ha)=-8.73454E-08
           Relative     =-1.22449E-09

--- Iteration: ( 8/40) Internal Cycle: (1/1)
--------------------------------------------------------------------------------

---SELF-CONSISTENT-FIELD CONVERGENCE--------------------------------------------

---OUTPUT-----------------------------------------------------------------------

 Cartesian coordinates (xcart) [bohr]
  0.00000000000000E+00  0.00000000000000E+00  0.00000000000000E+00
  3.74165774311357E+00  3.74165774311357E+00  3.78198756455495E+00
  0.00000000000000E+00  3.74165774311357E+00  3.77582125534434E+00
  3.74165774311357E+00  0.00000000000000E+00  3.77582125534434E+00
  3.74165774311357E+00  3.74165774311357E+00 -4.60449620185064E-04
 Reduced coordinates (xred)
  0.00000000000000E+00  0.00000000000000E+00  0.00000000000000E+00
  5.00000000000000E-01  5.00000000000000E-01  5.00335405583320E-01
  0.00000000000000E+00  5.00000000000000E-01  4.99519638009477E-01
  5.00000000000000E-01  0.00000000000000E+00  4.99519638009477E-01
  5.00000000000000E-01  5.00000000000000E-01 -6.09148611764645E-05
 Cartesian forces (fcart) [Ha/bohr]; max,rms= 1.28296E-01 4.62328E-02 (free atoms)
  0.00000000000000E+00  0.00000000000000E+00 -1.36497616114621E-02
  0.00000000000000E+00  0.00000000000000E+00  6.70534323879113E-03
  0.00000000000000E+00  0.00000000000000E+00  6.76200525407876E-02
  0.00000000000000E+00  0.00000000000000E+00  6.76200525407876E-02
  0.00000000000000E+00  0.00000000000000E+00 -1.28295686708904E-01
 Reduced forces (fred)
  0.00000000000000E+00  0.00000000000000E+00  5.67568108348092E-02
  0.00000000000000E+00  0.00000000000000E+00 -9.71054834577938E-02
  0.00000000000000E+00  0.00000000000000E+00 -5.57553955638253E-01
  0.00000000000000E+00  0.00000000000000E+00 -5.57553955638253E-01
  0.00000000000000E+00  0.00000000000000E+00  9.23354413576755E-01
 Total energy (etotal) [Ha]= -7.13290104646500E+01

 Difference of energy with previous step (new-old):
           Absolute (Ha)= 3.09587E-03
           Relative     = 4.34017E-05

--- Iteration: ( 9/40) Internal Cycle: (1/1)
--------------------------------------------------------------------------------

---SELF-CONSISTENT-FIELD CONVERGENCE--------------------------------------------

---OUTPUT-----------------------------------------------------------------------

 Cartesian coordinates (xcart) [bohr]
  0.00000000000000E+00  0.00000000000000E+00  0.00000000000000E+00
  3.74165774311357E+00  3.74165774311357E+00  3.78253928583335E+00
  0.00000000000000E+00  3.74165774311357E+00  3.77673315703847E+00
  3.74165774311357E+00  0.00000000000000E+00  3.77673315703847E+00
  3.74165774311357E+00  3.74165774311357E+00 -1.98560832423326E-03
 Reduced coordinates (xred)
  0.00000000000000E+00  0.00000000000000E+00  0.00000000000000E+00
  5.00000000000000E-01  5.00000000000000E-01  5.00408395164826E-01
  0.00000000000000E+00  5.00000000000000E-01  4.99640277407730E-01
  5.00000000000000E-01  0.00000000000000E+00  4.99640277407730E-01
  5.00000000000000E-01  5.00000000000000E-01 -2.62684667592706E-04
 Cartesian forces (fcart) [Ha/bohr]; max,rms= 7.32374E-04 2.85015E-04 (free atoms)
  0.00000000000000E+00  0.00000000000000E+00  1.68728932171220E-04
  0.00000000000000E+00  0.00000000000000E+00  6.58718516527631E-04
  0.00000000000000E+00  0.00000000000000E+00 -4.75367498158986E-05
  0.00000000000000E+00  0.00000000000000E+00 -4.75367498158986E-05
  0.00000000000000E+00  0.00000000000000E+00 -7.32373949067055E-04
 Reduced forces (fred)
  0.00000000000000E+00  0.00000000000000E+00 -4.89779547543626E-04
  0.00000000000000E+00  0.00000000000000E+00 -4.19356403714396E-03
  0.00000000000000E+00  0.00000000000000E+00  1.14495209604595E-03
  0.00000000000000E+00  0.00000000000000E+00  1.14495209604595E-03
  0.00000000000000E+00  0.00000000000000E+00  6.32157110483444E-03
 Total energy (etotal) [Ha]= -7.13321073453279E+01

 Difference of energy with previous step (new-old):
           Absolute (Ha)=-3.09688E-03
           Relative     =-4.34159E-05

--- Iteration: (10/40) Internal Cycle: (1/1)
--------------------------------------------------------------------------------

---SELF-CONSISTENT-FIELD CONVERGENCE--------------------------------------------

---OUTPUT-----------------------------------------------------------------------

 Cartesian coordinates (xcart) [bohr]
  0.00000000000000E+00  0.00000000000000E+00  0.00000000000000E+00
  3.74165774311357E+00  3.74165774311357E+00  3.79455037530299E+00
  0.00000000000000E+00  3.74165774311357E+00  3.77707680955416E+00
  3.74165774311357E+00  0.00000000000000E+00  3.77707680955416E+00
  3.74165774311357E+00  3.74165774311357E+00 -1.06260699476059E-03
 Reduced coordinates (xred)
  0.00000000000000E+00  0.00000000000000E+00  0.00000000000000E+00
  5.00000000000000E-01  5.00000000000000E-01  5.01997393864243E-01
  0.00000000000000E+00  5.00000000000000E-01  4.99685740677474E-01
  5.00000000000000E-01  0.00000000000000E+00  4.99685740677474E-01
  5.00000000000000E-01  5.00000000000000E-01 -1.40576850828905E-04
 Cartesian forces (fcart) [Ha/bohr]; max,rms= 6.85035E-03 3.29875E-03 (free atoms)
  0.00000000000000E+00  0.00000000000000E+00  5.59845342280320E-03
  0.00000000000000E+00  0.00000000000000E+00  5.44813585983516E-03
  0.00000000000000E+00  0.00000000000000E+00 -6.85035229046517E-03
  0.00000000000000E+00  0.00000000000000E+00 -6.85035229046517E-03
  0.00000000000000E+00  0.00000000000000E+00  2.65411529829197E-03
 Reduced forces (fred)
  0.00000000000000E+00  0.00000000000000E+00 -2.51852797926837E-02
  0.00000000000000E+00  0.00000000000000E+00 -2.40490436847942E-02
  0.00000000000000E+00  0.00000000000000E+00  6.89140541256336E-02
  0.00000000000000E+00  0.00000000000000E+00  6.89140541256336E-02
  0.00000000000000E+00  0.00000000000000E+00 -2.92930900092229E-03
 Total energy (etotal) [Ha]= -7.13322723709650E+01

 Difference of energy with previous step (new-old):
           Absolute (Ha)=-1.65026E-04
           Relative     =-2.31348E-06

--- Iteration: (11/40) Internal Cycle: (1/1)
--------------------------------------------------------------------------------

---SELF-CONSISTENT-FIELD CONVERGENCE--------------------------------------------

---OUTPUT-----------------------------------------------------------------------

 Cartesian coordinates (xcart) [bohr]
  0.00000000000000E+00  0.00000000000000E+00  0.00000000000000E+00
  3.74165774311357E+00  3.74165774311357E+00  3.78133839948934E+00
  0.00000000000000E+00  3.74165774311357E+00  3.77685053020590E+00
  3.74165774311357E+00  0.00000000000000E+00  3.77685053020590E+00
  3.74165774311357E+00  3.74165774311357E+00 -1.94272933475219E-03
 Reduced coordinates (xred)
  0.00000000000000E+00  0.00000000000000E+00  0.00000000000000E+00
  5.00000000000000E-01  5.00000000000000E-01  5.00249524743987E-01
  0.00000000000000E+00  5.00000000000000E-01  4.99655805209005E-01
  5.00000000000000E-01  0.00000000000000E+00  4.99655805209005E-01
  5.00000000000000E-01  5.00000000000000E-01 -2.57012021602518E-04
 Cartesian forces (fcart) [Ha/bohr]; max,rms= 1.04751E-03 4.55706E-04 (free atoms)
  0.00000000000000E+00  0.00000000000000E+00  9.50578378887162E-04
  0.00000000000000E+00  0.00000000000000E+00  1.04750702763858E-03
  0.00000000000000E+00  0.00000000000000E+00 -5.62776782257589E-04
  0.00000000000000E+00  0.00000000000000E+00 -5.62776782257589E-04
  0.00000000000000E+00  0.00000000000000E+00 -8.72531842010567E-04
 Reduced forces (fred)
  0.00000000000000E+00  0.00000000000000E+00  2.01301308068013E-03
  0.00000000000000E+00  0.00000000000000E+00  1.28033867839671E-03
  0.00000000000000E+00  0.00000000000000E+00  1.34523202660905E-02
  0.00000000000000E+00  0.00000000000000E+00  1.34523202660905E-02
  0.00000000000000E+00  0.00000000000000E+00  1.57937291909256E-02
 Total energy (etotal) [Ha]= -7.13321126712690E+01

 Difference of energy with previous step (new-old):
           Absolute (Ha)= 1.59700E-04
           Relative     = 2.23882E-06

--- Iteration: (12/40) Internal Cycle: (1/1)
--------------------------------------------------------------------------------

---SELF-CONSISTENT-FIELD CONVERGENCE--------------------------------------------

---OUTPUT-----------------------------------------------------------------------

 Cartesian coordinates (xcart) [bohr]
  0.00000000000000E+00  0.00000000000000E+00  0.00000000000000E+00
  3.74165774311357E+00  3.74165774311357E+00  3.77840992197934E+00
  0.00000000000000E+00  3.74165774311357E+00  3.77677327078501E+00
  3.74165774311357E+00  0.00000000000000E+00  3.77677327078501E+00
  3.74165774311357E+00  3.74165774311357E+00 -2.19833175386337E-03
 Reduced coordinates (xred)
  0.00000000000000E+00  0.00000000000000E+00  0.00000000000000E+00
  5.00000000000000E-01  5.00000000000000E-01  4.99862103855447E-01
  0.00000000000000E+00  5.00000000000000E-01  4.99645584227834E-01
  5.00000000000000E-01  0.00000000000000E+00  4.99645584227834E-01
  5.00000000000000E-01  5.00000000000000E-01 -2.90826765266044E-04
 Cartesian forces (fcart) [Ha/bohr]; max,rms= 9.07310E-03 4.33891E-03 (free atoms)
  0.00000000000000E+00  0.00000000000000E+00 -9.14067865344175E-03
  0.00000000000000E+00  0.00000000000000E+00 -7.72157925767577E-03
  0.00000000000000E+00  0.00000000000000E+00  9.07310330046427E-03
  0.00000000000000E+00  0.00000000000000E+00  9.07310330046427E-03
  0.00000000000000E+00  0.00000000000000E+00 -1.28394868981102E-03
 Reduced forces (fred)
  0.00000000000000E+00  0.00000000000000E+00  1.33950145585391E-02
  0.00000000000000E+00  0.00000000000000E+00  2.66817770517433E-03
  0.00000000000000E+00  0.00000000000000E+00 -1.24281224389370E-01
  0.00000000000000E+00  0.00000000000000E+00 -1.24281224389370E-01
  0.00000000000000E+00  0.00000000000000E+00 -4.59932571666555E-02
 Total energy (etotal) [Ha]= -7.13320603288155E+01

 Difference of energy with previous step (new-old):
           Absolute (Ha)= 5.23425E-05
           Relative     = 7.33786E-07

--- Iteration: (13/40) Internal Cycle: (1/1)
--------------------------------------------------------------------------------

---SELF-CONSISTENT-FIELD CONVERGENCE--------------------------------------------

---OUTPUT-----------------------------------------------------------------------

 Cartesian coordinates (xcart) [bohr]
  0.00000000000000E+00  0.00000000000000E+00  0.00000000000000E+00
  3.74165774311357E+00  3.74165774311357E+00  3.78110931774829E+00
  0.00000000000000E+00  3.74165774311357E+00  3.77688954784572E+00
  3.74165774311357E+00  0.00000000000000E+00  3.77688954784572E+00
  3.74165774311357E+00  3.74165774311357E+00 -1.93505768815261E-03
 Reduced coordinates (xred)
  0.00000000000000E+00  0.00000000000000E+00  0.00000000000000E+00
  5.00000000000000E-01  5.00000000000000E-01  5.00219218534920E-01
  0.00000000000000E+00  5.00000000000000E-01  4.99660967020436E-01
  5.00000000000000E-01  0.00000000000000E+00  4.99660967020436E-01
  5.00000000000000E-01  5.00000000000000E-01 -2.55997106469304E-04
 Cartesian forces (fcart) [Ha/bohr]; max,rms= 4.35045E-04 1.42974E-04 (free atoms)
  0.00000000000000E+00  0.00000000000000E+00  5.38737721592630E-05
  0.00000000000000E+00  0.00000000000000E+00  1.98263162779863E-04
  0.00000000000000E+00  0.00000000000000E+00  9.14538422755663E-05
  0.00000000000000E+00  0.00000000000000E+00  9.14538422755663E-05
  0.00000000000000E+00  0.00000000000000E+00 -4.35044619490258E-04
 Reduced forces (fred)
  0.00000000000000E+00  0.00000000000000E+00  2.97313730994792E-03
  0.00000000000000E+00  0.00000000000000E+00  1.88171169087920E-03
  0.00000000000000E+00  0.00000000000000E+00  2.68907314765011E-03
  0.00000000000000E+00  0.00000000000000E+00  2.68907314765011E-03
  0.00000000000000E+00  0.00000000000000E+00  6.66882475614199E-03
 Total energy (etotal) [Ha]= -7.13321138664077E+01

 Difference of energy with previous step (new-old):
           Absolute (Ha)=-5.35376E-05
           Relative     =-7.50540E-07

--- Iteration: (14/40) Internal Cycle: (1/1)
--------------------------------------------------------------------------------

---SELF-CONSISTENT-FIELD CONVERGENCE--------------------------------------------

---OUTPUT-----------------------------------------------------------------------

 Cartesian coordinates (xcart) [bohr]
  0.00000000000000E+00  0.00000000000000E+00  0.00000000000000E+00
  3.74165774311357E+00  3.74165774311357E+00  3.78114205635381E+00
  0.00000000000000E+00  3.74165774311357E+00  3.77693022591225E+00
  3.74165774311357E+00  0.00000000000000E+00  3.77693022591225E+00
  3.74165774311357E+00  3.74165774311357E+00 -1.90030119717144E-03
 Reduced coordinates (xred)
  0.00000000000000E+00  0.00000000000000E+00  0.00000000000000E+00
  5.00000000000000E-01  5.00000000000000E-01  5.00223549665890E-01
  0.00000000000000E+00  5.00000000000000E-01  4.99666348496860E-01
  5.00000000000000E-01  0.00000000000000E+00  4.99666348496860E-01
  5.00000000000000E-01  5.00000000000000E-01 -2.51399020749855E-04
 Cartesian forces (fcart) [Ha/bohr]; max,rms= 4.15604E-04 1.61334E-04 (free atoms)
  0.00000000000000E+00  0.00000000000000E+00  2.49932841350179E-04
  0.00000000000000E+00  0.00000000000000E+00  3.50144291894293E-04
  0.00000000000000E+00  0.00000000000000E+00 -9.22365116198404E-05
  0.00000000000000E+00  0.00000000000000E+00 -9.22365116198404E-05
  0.00000000000000E+00  0.00000000000000E+00 -4.15604110004791E-04
 Reduced forces (fred)
  0.00000000000000E+00  0.00000000000000E+00  2.67725754980356E-03
  0.00000000000000E+00  0.00000000000000E+00  1.91976876217321E-03
  0.00000000000000E+00  0.00000000000000E+00  5.26368302252363E-03
  0.00000000000000E+00  0.00000000000000E+00  5.26368302252363E-03
  0.00000000000000E+00  0.00000000000000E+00  7.70798782730967E-03
 Total energy (etotal) [Ha]= -7.13321138048690E+01

 Difference of energy with previous step (new-old):
           Absolute (Ha)= 6.15387E-08
           Relative     = 8.62706E-10

--- Iteration: (15/40) Internal Cycle: (1/1)
--------------------------------------------------------------------------------

---SELF-CONSISTENT-FIELD CONVERGENCE--------------------------------------------

---OUTPUT-----------------------------------------------------------------------

 Cartesian coordinates (xcart) [bohr]
  0.00000000000000E+00  0.00000000000000E+00  0.00000000000000E+00
  3.74165774311357E+00  3.74165774311357E+00  3.78111693336756E+00
  0.00000000000000E+00  3.74165774311357E+00  3.77688949174010E+00
  3.74165774311357E+00  0.00000000000000E+00  3.77688949174010E+00
  3.74165774311357E+00  3.74165774311357E+00 -1.93443255121375E-03
 Reduced coordinates (xred)
  0.00000000000000E+00  0.00000000000000E+00  0.00000000000000E+00
  5.00000000000000E-01  5.00000000000000E-01  5.00220226037956E-01
  0.00000000000000E+00  5.00000000000000E-01  4.99660959597982E-01
  5.00000000000000E-01  0.00000000000000E+00  4.99660959597982E-01
  5.00000000000000E-01  5.00000000000000E-01 -2.55914404414231E-04
 Cartesian forces (fcart) [Ha/bohr]; max,rms= 3.87971E-03 1.89059E-03 (free atoms)
  0.00000000000000E+00  0.00000000000000E+00  4.35723849793427E-03
  0.00000000000000E+00  0.00000000000000E+00  3.87971455302506E-03
  0.00000000000000E+00  0.00000000000000E+00 -3.67875863640835E-03
  0.00000000000000E+00  0.00000000000000E+00 -3.67875863640835E-03
  0.00000000000000E+00  0.00000000000000E+00 -8.79435778142630E-04
 Reduced forces (fred)
  0.00000000000000E+00  0.00000000000000E+00 -1.68383564977740E-03
  0.00000000000000E+00  0.00000000000000E+00  1.92572226131696E-03
  0.00000000000000E+00  0.00000000000000E+00  5.90594995044682E-02
  0.00000000000000E+00  0.00000000000000E+00  5.90594995044682E-02
  0.00000000000000E+00  0.00000000000000E+00  3.78996852658727E-02
 Total energy (etotal) [Ha]= -7.13320730186624E+01

 Difference of energy with previous step (new-old):
           Absolute (Ha)= 4.07862E-05
           Relative     = 5.71779E-07

--- Iteration: (16/40) Internal Cycle: (1/1)
--------------------------------------------------------------------------------

---SELF-CONSISTENT-FIELD CONVERGENCE--------------------------------------------

     iter   Etot(hartree)      deltaE(h)  residm     vres2
 ETOT  1  -71.213600387857    -7.121E+01 1.483E-02 1.228E+02
 ETOT  2  -71.155419156550     5.818E-02 3.065E-03 2.795E+02
 ETOT  3  -71.228164480399    -7.275E-02 3.477E-04 1.521E+02
 ETOT  4  -71.284544764936    -5.638E-02 3.307E-04 4.886E+01
 ETOT  5  -71.305416707875    -2.087E-02 3.887E-04 3.705E+01
 ETOT  6  -71.318181929990    -1.277E-02 1.068E-04 1.625E+01
 ETOT  7  -71.331398740196    -1.322E-02 3.182E-04 3.625E-01
 ETOT  8  -71.331689101336    -2.904E-04 9.843E-05 7.916E-01
 ETOT  9  -71.331947953868    -2.589E-04 2.065E-04 2.512E-01
 ETOT 10  -71.332090647563    -1.427E-04 7.248E-05 2.598E-02
 ETOT 11  -71.332104219104    -1.357E-05 1.392E-04 3.167E-03
 ETOT 12  -71.332104228812    -9.708E-09 5.020E-05 2.182E-03
 ETOT 13  -71.332106040987    -1.812E-06 8.857E-05 5.344E-04
 ETOT 14  -71.332106460273    -4.193E-07 3.256E-05 1.767E-04
 ETOT 15  -71.332106635356    -1.751E-07 5.464E-05 2.734E-05
 ETOT 16  -71.332106650954    -1.560E-08 2.024E-05 4.053E-06
 ETOT 17  -71.332106654056    -3.102E-09 3.296E-05 2.421E-06

 At SCF step   17, etot is converged : 
  for the second time, diff in etot=  3.102E-09 < toldfe=  1.000E-07

 Cartesian components of stress tensor (hartree/bohr^3)
  sigma(1 1)=  1.89402592E-03  sigma(3 2)=  0.00000000E+00
  sigma(2 2)=  1.89402592E-03  sigma(3 1)=  0.00000000E+00
  sigma(3 3)=  2.02303361E-03  sigma(2 1)=  0.00000000E+00
 

---OUTPUT-----------------------------------------------------------------------

 Cartesian coordinates (xcart) [bohr]
  0.00000000000000E+00  0.00000000000000E+00  0.00000000000000E+00
  3.74165774311357E+00  3.74165774311357E+00  3.78115407414881E+00
  0.00000000000000E+00  3.74165774311357E+00  3.77693751280230E+00
  3.74165774311357E+00  0.00000000000000E+00  3.77693751280230E+00
  3.74165774311357E+00  3.74165774311357E+00 -1.89372276809752E-03
 Reduced coordinates (xred)
  0.00000000000000E+00  0.00000000000000E+00  0.00000000000000E+00
  5.00000000000000E-01  5.00000000000000E-01  5.00225139551693E-01
  0.00000000000000E+00  5.00000000000000E-01  4.99667312510895E-01
  5.00000000000000E-01  0.00000000000000E+00  4.99667312510895E-01
  5.00000000000000E-01  5.00000000000000E-01 -2.50528732066294E-04
 Cartesian forces (fcart) [Ha/bohr]; max,rms= 8.08000E-05 3.33383E-05 (free atoms)
  0.00000000000000E+00  0.00000000000000E+00 -1.45070444383302E-04
  0.00000000000000E+00  0.00000000000000E+00 -1.67337169742843E-05
  0.00000000000000E+00  0.00000000000000E+00  8.07999765256902E-05
  0.00000000000000E+00  0.00000000000000E+00  8.07999765256902E-05
  0.00000000000000E+00  0.00000000000000E+00  2.04208306205485E-07
 Reduced forces (fred)
  0.00000000000000E+00  0.00000000000000E+00  1.16825255428342E-03
  0.00000000000000E+00  0.00000000000000E+00  1.98167483908060E-04
  0.00000000000000E+00  0.00000000000000E+00 -5.39080393866982E-04
  0.00000000000000E+00  0.00000000000000E+00 -5.39080393866982E-04
  0.00000000000000E+00  0.00000000000000E+00  7.01353237504361E-05
 Total energy (etotal) [Ha]= -7.13321066540564E+01

 Difference of energy with previous step (new-old):
           Absolute (Ha)=-3.36354E-05
           Relative     =-4.71532E-07

--- Iteration: (17/40) Internal Cycle: (1/1)
--------------------------------------------------------------------------------

---SELF-CONSISTENT-FIELD CONVERGENCE--------------------------------------------

     iter   Etot(hartree)      deltaE(h)  residm     vres2
 ETOT  1  -71.331799058159    -7.133E+01 2.018E-05 1.284E+00
 ETOT  2  -71.332098898005    -2.998E-04 1.165E-05 1.195E-02
 ETOT  3  -71.332104103872    -5.206E-06 6.885E-06 3.719E-03
 ETOT  4  -71.332105581112    -1.477E-06 6.921E-06 2.489E-04
 ETOT  5  -71.332106359844    -7.787E-07 5.568E-06 4.002E-04
 ETOT  6  -71.332106542940    -1.831E-07 4.118E-06 2.902E-05
 ETOT  7  -71.332106639953    -9.701E-08 4.571E-06 1.804E-05
 ETOT  8  -71.332106654213    -1.426E-08 3.364E-06 6.198E-06

 At SCF step    8, etot is converged : 
  for the second time, diff in etot=  1.426E-08 < toldfe=  1.000E-07

 Cartesian components of stress tensor (hartree/bohr^3)
  sigma(1 1)=  1.89397785E-03  sigma(3 2)=  0.00000000E+00
  sigma(2 2)=  1.89397785E-03  sigma(3 1)=  0.00000000E+00
  sigma(3 3)=  2.02298007E-03  sigma(2 1)=  0.00000000E+00
 

---OUTPUT-----------------------------------------------------------------------

 Cartesian coordinates (xcart) [bohr]
  0.00000000000000E+00  0.00000000000000E+00  0.00000000000000E+00
  3.74165774311357E+00  3.74165774311357E+00  3.78120191130753E+00
  0.00000000000000E+00  3.74165774311357E+00  3.77695800851791E+00
  3.74165774311357E+00  0.00000000000000E+00  3.77695800851791E+00
  3.74165774311357E+00  3.74165774311357E+00 -1.86514480997648E-03
 Reduced coordinates (xred)
  0.00000000000000E+00  0.00000000000000E+00  0.00000000000000E+00
  5.00000000000000E-01  5.00000000000000E-01  5.00231468135223E-01
  0.00000000000000E+00  5.00000000000000E-01  4.99670023977289E-01
  5.00000000000000E-01  0.00000000000000E+00  4.99670023977289E-01
  5.00000000000000E-01  5.00000000000000E-01 -2.46748031039870E-04
 Cartesian forces (fcart) [Ha/bohr]; max,rms= 8.16590E-05 3.49956E-05 (free atoms)
  0.00000000000000E+00  0.00000000000000E+00 -1.35170373273693E-04
  0.00000000000000E+00  0.00000000000000E+00 -3.60256997824128E-05
  0.00000000000000E+00  0.00000000000000E+00  8.16590321723186E-05
  0.00000000000000E+00  0.00000000000000E+00  8.16590321723186E-05
  0.00000000000000E+00  0.00000000000000E+00  7.87800871146844E-06
 Reduced forces (fred)
  0.00000000000000E+00  0.00000000000000E+00  1.15112183559836E-03
  0.00000000000000E+00  0.00000000000000E+00  4.01696713866816E-04
  0.00000000000000E+00  0.00000000000000E+00 -4.87870939799177E-04
  0.00000000000000E+00  0.00000000000000E+00 -4.87870939799177E-04
  0.00000000000000E+00  0.00000000000000E+00  6.98327727808924E-05
 Total energy (etotal) [Ha]= -7.13321066542134E+01

 Difference of energy with previous step (new-old):
           Absolute (Ha)=-1.56945E-10
           Relative     =-2.20020E-12

--- Iteration: (18/40) Internal Cycle: (1/1)
--------------------------------------------------------------------------------

---SELF-CONSISTENT-FIELD CONVERGENCE--------------------------------------------

     iter   Etot(hartree)      deltaE(h)  residm     vres2
 ETOT  1  -71.332106647826    -7.133E+01 2.936E-06 2.581E-05
 ETOT  2  -71.332106617851     2.998E-08 2.423E-06 6.029E-05
 ETOT  3  -71.332106644270    -2.642E-08 2.390E-06 4.940E-06

 At SCF step    3, etot is converged : 
  for the second time, diff in etot=  2.642E-08 < toldfe=  1.000E-07

 Cartesian components of stress tensor (hartree/bohr^3)
  sigma(1 1)=  1.89361098E-03  sigma(3 2)=  0.00000000E+00
  sigma(2 2)=  1.89361098E-03  sigma(3 1)=  0.00000000E+00
  sigma(3 3)=  2.02255624E-03  sigma(2 1)=  0.00000000E+00
 

---OUTPUT-----------------------------------------------------------------------

 Cartesian coordinates (xcart) [bohr]
  0.00000000000000E+00  0.00000000000000E+00  0.00000000000000E+00
  3.74165774311357E+00  3.74165774311357E+00  3.78133397592757E+00
  0.00000000000000E+00  3.74165774311357E+00  3.77701388661340E+00
  3.74165774311357E+00  0.00000000000000E+00  3.77701388661340E+00
  3.74165774311357E+00  3.74165774311357E+00 -1.78660579735052E-03
 Reduced coordinates (xred)
  0.00000000000000E+00  0.00000000000000E+00  0.00000000000000E+00
  5.00000000000000E-01  5.00000000000000E-01  5.00248939531970E-01
  0.00000000000000E+00  5.00000000000000E-01  4.99677416330936E-01
  5.00000000000000E-01  0.00000000000000E+00  4.99677416330936E-01
  5.00000000000000E-01  5.00000000000000E-01 -2.36357767173165E-04
 Cartesian forces (fcart) [Ha/bohr]; max,rms= 7.50769E-05 3.07476E-05 (free atoms)
  0.00000000000000E+00  0.00000000000000E+00 -1.45275139489311E-04
  0.00000000000000E+00  0.00000000000000E+00 -7.91750811022376E-06
  0.00000000000000E+00  0.00000000000000E+00  7.50768755671148E-05
  0.00000000000000E+00  0.00000000000000E+00  7.50768755671148E-05
  0.00000000000000E+00  0.00000000000000E+00  3.03889646530479E-06
 Reduced forces (fred)
  0.00000000000000E+00  0.00000000000000E+00  1.09471546583509E-03
  0.00000000000000E+00  0.00000000000000E+00  5.64422435617505E-05
  0.00000000000000E+00  0.00000000000000E+00 -5.70904379309467E-04
  0.00000000000000E+00  0.00000000000000E+00 -5.70904379309467E-04
  0.00000000000000E+00  0.00000000000000E+00 -2.63761726336260E-05
 Total energy (etotal) [Ha]= -7.13321066442699E+01

 Difference of energy with previous step (new-old):
           Absolute (Ha)= 9.94351E-09
           Relative     = 1.39397E-10

--- Iteration: (19/40) Internal Cycle: (1/1)
--------------------------------------------------------------------------------

---SELF-CONSISTENT-FIELD CONVERGENCE--------------------------------------------

     iter   Etot(hartree)      deltaE(h)  residm     vres2
 ETOT  1  -71.332106145726    -7.133E+01 2.518E-06 8.408E-04
 ETOT  2  -71.332104641982     1.504E-06 2.107E-06 2.633E-03
 ETOT  3  -71.332106267605    -1.626E-06 1.073E-06 9.818E-05
 ETOT  4  -71.332106608974    -3.414E-07 1.745E-06 3.660E-05
 ETOT  5  -71.332106637609    -2.863E-08 9.437E-07 1.117E-05
 ETOT  6  -71.332106638310    -7.009E-10 1.461E-06 6.272E-06

 At SCF step    6, etot is converged : 
  for the second time, diff in etot=  7.009E-10 < toldfe=  1.000E-07

 Cartesian components of stress tensor (hartree/bohr^3)
  sigma(1 1)=  1.89429631E-03  sigma(3 2)=  0.00000000E+00
  sigma(2 2)=  1.89429631E-03  sigma(3 1)=  0.00000000E+00
  sigma(3 3)=  2.02339000E-03  sigma(2 1)=  0.00000000E+00
 

---OUTPUT-----------------------------------------------------------------------

 Cartesian coordinates (xcart) [bohr]
  0.00000000000000E+00  0.00000000000000E+00  0.00000000000000E+00
  3.74165774311357E+00  3.74165774311357E+00  3.78094765896534E+00
  0.00000000000000E+00  3.74165774311357E+00  3.77684969742202E+00
  3.74165774311357E+00  0.00000000000000E+00  3.77684969742202E+00
  3.74165774311357E+00  3.74165774311357E+00 -2.01678818451363E-03
 Reduced coordinates (xred)
  0.00000000000000E+00  0.00000000000000E+00  0.00000000000000E+00
  5.00000000000000E-01  5.00000000000000E-01  5.00197831999043E-01
  0.00000000000000E+00  5.00000000000000E-01  4.99655695036443E-01
  5.00000000000000E-01  0.00000000000000E+00  4.99655695036443E-01
  5.00000000000000E-01  5.00000000000000E-01 -2.66809585449554E-04
 Cartesian forces (fcart) [Ha/bohr]; max,rms= 7.97992E-05 3.27201E-05 (free atoms)
  0.00000000000000E+00  0.00000000000000E+00 -1.69651707299451E-04
  0.00000000000000E+00  0.00000000000000E+00  1.05453438477051E-05
  0.00000000000000E+00  0.00000000000000E+00  7.97992168776577E-05
  0.00000000000000E+00  0.00000000000000E+00  7.97992168776577E-05
  0.00000000000000E+00  0.00000000000000E+00 -4.92070303568875E-07
 Reduced forces (fred)
  0.00000000000000E+00  0.00000000000000E+00  1.30346508032448E-03
  0.00000000000000E+00  0.00000000000000E+00 -5.86272261623711E-05
  0.00000000000000E+00  0.00000000000000E+00 -5.82110640835354E-04
  0.00000000000000E+00  0.00000000000000E+00 -5.82110640835354E-04
  0.00000000000000E+00  0.00000000000000E+00  2.48035336822057E-05
 Total energy (etotal) [Ha]= -7.13321066383101E+01

 Difference of energy with previous step (new-old):
           Absolute (Ha)= 5.95978E-09
           Relative     = 8.35497E-11

--- Iteration: (20/40) Internal Cycle: (1/1)
--------------------------------------------------------------------------------

---SELF-CONSISTENT-FIELD CONVERGENCE--------------------------------------------

     iter   Etot(hartree)      deltaE(h)  residm     vres2
 ETOT  1  -71.332104729910    -7.133E+01 1.246E-06 2.413E-03
 ETOT  2  -71.332099809442     4.920E-06 1.050E-06 8.504E-03
 ETOT  3  -71.332106274064    -6.465E-06 7.034E-07 1.176E-04
 ETOT  4  -71.332106633659    -3.596E-07 9.465E-07 5.434E-06
 ETOT  5  -71.332106639844    -6.185E-09 5.449E-07 9.903E-06
 ETOT  6  -71.332106650638    -1.079E-08 8.867E-07 1.812E-06

 At SCF step    6, etot is converged : 
  for the second time, diff in etot=  1.079E-08 < toldfe=  1.000E-07

 Cartesian components of stress tensor (hartree/bohr^3)
  sigma(1 1)=  1.89395482E-03  sigma(3 2)=  0.00000000E+00
  sigma(2 2)=  1.89395482E-03  sigma(3 1)=  0.00000000E+00
  sigma(3 3)=  2.02295932E-03  sigma(2 1)=  0.00000000E+00
 

---OUTPUT-----------------------------------------------------------------------

 Cartesian coordinates (xcart) [bohr]
  0.00000000000000E+00  0.00000000000000E+00  0.00000000000000E+00
  3.74165774311357E+00  3.74165774311357E+00  3.78242846274732E+00
  0.00000000000000E+00  3.74165774311357E+00  3.77747856960961E+00
  3.74165774311357E+00  0.00000000000000E+00  3.77747856960961E+00
  3.74165774311357E+00  3.74165774311357E+00 -1.13475151780357E-03
 Reduced coordinates (xred)
  0.00000000000000E+00  0.00000000000000E+00  0.00000000000000E+00
  5.00000000000000E-01  5.00000000000000E-01  5.00393733901998E-01
  0.00000000000000E+00  5.00000000000000E-01  4.99738891243639E-01
  5.00000000000000E-01  0.00000000000000E+00  4.99738891243640E-01
  5.00000000000000E-01  5.00000000000000E-01 -1.50121160158639E-04
 Cartesian forces (fcart) [Ha/bohr]; max,rms= 7.10029E-05 3.22527E-05 (free atoms)
  0.00000000000000E+00  0.00000000000000E+00 -3.54989272382375E-05
  0.00000000000000E+00  0.00000000000000E+00 -7.10029096282322E-05
  0.00000000000000E+00  0.00000000000000E+00  6.02005182954696E-05
  0.00000000000000E+00  0.00000000000000E+00  6.02005182954696E-05
  0.00000000000000E+00  0.00000000000000E+00 -1.38991997244695E-05
 Reduced forces (fred)
  0.00000000000000E+00  0.00000000000000E+00  3.08277525372550E-04
  0.00000000000000E+00  0.00000000000000E+00  5.76648738748089E-04
  0.00000000000000E+00  0.00000000000000E+00 -4.15105447138300E-04
  0.00000000000000E+00  0.00000000000000E+00 -4.15105447138300E-04
  0.00000000000000E+00  0.00000000000000E+00  1.45007247188644E-04
 Total energy (etotal) [Ha]= -7.13321066506385E+01

 Difference of energy with previous step (new-old):
           Absolute (Ha)=-1.23283E-08
           Relative     =-1.72830E-10

--- Iteration: (21/40) Internal Cycle: (1/1)
--------------------------------------------------------------------------------

---SELF-CONSISTENT-FIELD CONVERGENCE--------------------------------------------

     iter   Etot(hartree)      deltaE(h)  residm     vres2
 ETOT  1  -71.332106656505    -7.133E+01 5.663E-07 7.157E-06
 ETOT  2  -71.332106647460     9.045E-09 5.602E-07 1.918E-05
 ETOT  3  -71.332106662679    -1.522E-08 6.524E-07 2.154E-07

 At SCF step    3, etot is converged : 
  for the second time, diff in etot=  1.522E-08 < toldfe=  1.000E-07

 Cartesian components of stress tensor (hartree/bohr^3)
  sigma(1 1)=  1.89390311E-03  sigma(3 2)=  0.00000000E+00
  sigma(2 2)=  1.89390311E-03  sigma(3 1)=  0.00000000E+00
  sigma(3 3)=  2.02291760E-03  sigma(2 1)=  0.00000000E+00
 

---OUTPUT-----------------------------------------------------------------------

 Cartesian coordinates (xcart) [bohr]
  0.00000000000000E+00  0.00000000000000E+00  0.00000000000000E+00
  3.74165774311357E+00  3.74165774311357E+00  3.78203609978111E+00
  0.00000000000000E+00  3.74165774311357E+00  3.77731148791534E+00
  3.74165774311357E+00  0.00000000000000E+00  3.77731148791534E+00
  3.74165774311357E+00  3.74165774311357E+00 -1.36883857587960E-03
 Reduced coordinates (xred)
  0.00000000000000E+00  0.00000000000000E+00  0.00000000000000E+00
  5.00000000000000E-01  5.00000000000000E-01  5.00341826517195E-01
  0.00000000000000E+00  5.00000000000000E-01  4.99716787287494E-01
  5.00000000000000E-01  0.00000000000000E+00  4.99716787287495E-01
  5.00000000000000E-01  5.00000000000000E-01 -1.81089544148569E-04
 Cartesian forces (fcart) [Ha/bohr]; max,rms= 6.76780E-05 3.20472E-05 (free atoms)
  0.00000000000000E+00  0.00000000000000E+00 -6.93998121599097E-05
  0.00000000000000E+00  0.00000000000000E+00 -5.52103125251714E-05
  0.00000000000000E+00  0.00000000000000E+00  6.76780491337800E-05
  0.00000000000000E+00  0.00000000000000E+00  6.76780491337800E-05
  0.00000000000000E+00  0.00000000000000E+00 -1.07459735824790E-05
 Reduced forces (fred)
  0.00000000000000E+00  0.00000000000000E+00  5.79460087060754E-04
  0.00000000000000E+00  0.00000000000000E+00  4.72203013971409E-04
  0.00000000000000E+00  0.00000000000000E+00 -4.56698379846282E-04
  0.00000000000000E+00  0.00000000000000E+00 -4.56698379846282E-04
  0.00000000000000E+00  0.00000000000000E+00  1.36101320845446E-04
 Total energy (etotal) [Ha]= -7.13321066626788E+01

 Difference of energy with previous step (new-old):
           Absolute (Ha)=-1.20403E-08
           Relative     =-1.68793E-10

--- Iteration: (22/40) Internal Cycle: (1/1)
--------------------------------------------------------------------------------

---SELF-CONSISTENT-FIELD CONVERGENCE--------------------------------------------

     iter   Etot(hartree)      deltaE(h)  residm     vres2
 ETOT  1  -71.332106662890    -7.133E+01 6.166E-07 3.104E-06
 ETOT  2  -71.332106661557     1.333E-09 5.887E-07 3.548E-06
 ETOT  3  -71.332106663045    -1.488E-09 4.826E-07 5.260E-07

 At SCF step    3, etot is converged : 
  for the second time, diff in etot=  1.488E-09 < toldfe=  1.000E-07

 Cartesian components of stress tensor (hartree/bohr^3)
  sigma(1 1)=  1.89375318E-03  sigma(3 2)=  0.00000000E+00
  sigma(2 2)=  1.89375318E-03  sigma(3 1)=  0.00000000E+00
  sigma(3 3)=  2.02278500E-03  sigma(2 1)=  0.00000000E+00
 

---OUTPUT-----------------------------------------------------------------------

 Cartesian coordinates (xcart) [bohr]
  0.00000000000000E+00  0.00000000000000E+00  0.00000000000000E+00
  3.74165774311357E+00  3.74165774311357E+00  3.78197145978868E+00
  0.00000000000000E+00  3.74165774311357E+00  3.77728348593786E+00
  3.74165774311357E+00  0.00000000000000E+00  3.77728348593786E+00
  3.74165774311357E+00  3.74165774311357E+00 -1.40779691197810E-03
 Reduced coordinates (xred)
  0.00000000000000E+00  0.00000000000000E+00  0.00000000000000E+00
  5.00000000000000E-01  5.00000000000000E-01  5.00333275014505E-01
  0.00000000000000E+00  5.00000000000000E-01  4.99713082785425E-01
  5.00000000000000E-01  0.00000000000000E+00  4.99713082785426E-01
  5.00000000000000E-01  5.00000000000000E-01 -1.86243510035548E-04
 Cartesian forces (fcart) [Ha/bohr]; max,rms= 6.86686E-05 3.20337E-05 (free atoms)
  0.00000000000000E+00  0.00000000000000E+00 -7.47525724498473E-05
  0.00000000000000E+00  0.00000000000000E+00 -5.27951054127343E-05
  0.00000000000000E+00  0.00000000000000E+00  6.86686437143570E-05
  0.00000000000000E+00  0.00000000000000E+00  6.86686437143570E-05
  0.00000000000000E+00  0.00000000000000E+00 -9.78960956613239E-06
 Reduced forces (fred)
  0.00000000000000E+00  0.00000000000000E+00  6.22768713258485E-04
  0.00000000000000E+00  0.00000000000000E+00  4.56794316170455E-04
  0.00000000000000E+00  0.00000000000000E+00 -4.61338567524466E-04
  0.00000000000000E+00  0.00000000000000E+00 -4.61338567524466E-04
  0.00000000000000E+00  0.00000000000000E+00  1.31719878734340E-04
 Total energy (etotal) [Ha]= -7.13321066630449E+01

 Difference of energy with previous step (new-old):
           Absolute (Ha)=-3.66057E-10
           Relative     =-5.13173E-12

--- Iteration: (23/40) Internal Cycle: (1/1)
--------------------------------------------------------------------------------

---SELF-CONSISTENT-FIELD CONVERGENCE--------------------------------------------

     iter   Etot(hartree)      deltaE(h)  residm     vres2
 ETOT  1  -71.332106661563    -7.133E+01 4.685E-07 2.949E-06
 ETOT  2  -71.332106656361     5.201E-09 4.522E-07 9.290E-06
 ETOT  3  -71.332106663592    -7.230E-09 4.904E-07 1.395E-07

 At SCF step    3, etot is converged : 
  for the second time, diff in etot=  7.230E-09 < toldfe=  1.000E-07

 Cartesian components of stress tensor (hartree/bohr^3)
  sigma(1 1)=  1.89393130E-03  sigma(3 2)=  0.00000000E+00
  sigma(2 2)=  1.89393130E-03  sigma(3 1)=  0.00000000E+00
  sigma(3 3)=  2.02293285E-03  sigma(2 1)=  0.00000000E+00
 

---OUTPUT-----------------------------------------------------------------------

 Cartesian coordinates (xcart) [bohr]
  0.00000000000000E+00  0.00000000000000E+00  0.00000000000000E+00
  3.74165774311357E+00  3.74165774311357E+00  3.78198513877814E+00
  0.00000000000000E+00  3.74165774311357E+00  3.77728904716828E+00
  3.74165774311357E+00  0.00000000000000E+00  3.77728904716828E+00
  3.74165774311357E+00  3.74165774311357E+00 -1.39985216168950E-03
 Reduced coordinates (xred)
  0.00000000000000E+00  0.00000000000000E+00  0.00000000000000E+00
  5.00000000000000E-01  5.00000000000000E-01  5.00335084666869E-01
  0.00000000000000E+00  5.00000000000000E-01  4.99713818504522E-01
  5.00000000000000E-01  0.00000000000000E+00  4.99713818504523E-01
  5.00000000000000E-01  5.00000000000000E-01 -1.85192464840382E-04
 Cartesian forces (fcart) [Ha/bohr]; max,rms= 6.71474E-05 3.09740E-05 (free atoms)
  0.00000000000000E+00  0.00000000000000E+00 -7.44231982642209E-05
  0.00000000000000E+00  0.00000000000000E+00 -4.86818208651353E-05
  0.00000000000000E+00  0.00000000000000E+00  6.71474355384520E-05
  0.00000000000000E+00  0.00000000000000E+00  6.71474355384520E-05
  0.00000000000000E+00  0.00000000000000E+00 -1.11898519475479E-05
 Reduced forces (fred)
  0.00000000000000E+00  0.00000000000000E+00  6.11024796795223E-04
  0.00000000000000E+00  0.00000000000000E+00  4.16448182525128E-04
  0.00000000000000E+00  0.00000000000000E+00 -4.59094108589155E-04
  0.00000000000000E+00  0.00000000000000E+00 -4.59094108589155E-04
  0.00000000000000E+00  0.00000000000000E+00  1.33049968777523E-04
 Total energy (etotal) [Ha]= -7.13321066635916E+01

 Difference of energy with previous step (new-old):
           Absolute (Ha)=-5.46763E-10
           Relative     =-7.66503E-12

--- Iteration: (24/40) Internal Cycle: (1/1)
--------------------------------------------------------------------------------

---SELF-CONSISTENT-FIELD CONVERGENCE--------------------------------------------

     iter   Etot(hartree)      deltaE(h)  residm     vres2
 ETOT  1  -71.332106663544    -7.133E+01 4.650E-07 7.384E-07
 ETOT  2  -71.332106662654     8.900E-10 4.459E-07 1.706E-06
 ETOT  3  -71.332106663549    -8.943E-10 4.085E-07 1.156E-07

 At SCF step    3, etot is converged : 
  for the second time, diff in etot=  8.943E-10 < toldfe=  1.000E-07

 Cartesian components of stress tensor (hartree/bohr^3)
  sigma(1 1)=  1.89385203E-03  sigma(3 2)=  0.00000000E+00
  sigma(2 2)=  1.89385203E-03  sigma(3 1)=  0.00000000E+00
  sigma(3 3)=  2.02285454E-03  sigma(2 1)=  0.00000000E+00
 

---OUTPUT-----------------------------------------------------------------------

 Cartesian coordinates (xcart) [bohr]
  0.00000000000000E+00  0.00000000000000E+00  0.00000000000000E+00
  3.74165774311357E+00  3.74165774311357E+00  3.78199130768789E+00
  0.00000000000000E+00  3.74165774311357E+00  3.77729269376732E+00
  3.74165774311357E+00  0.00000000000000E+00  3.77729269376732E+00
  3.74165774311357E+00  3.74165774311357E+00 -1.39534862948767E-03
 Reduced coordinates (xred)
  0.00000000000000E+00  0.00000000000000E+00  0.00000000000000E+00
  5.00000000000000E-01  5.00000000000000E-01  5.00335900778481E-01
  0.00000000000000E+00  5.00000000000000E-01  4.99714300928798E-01
  5.00000000000000E-01  0.00000000000000E+00  4.99714300928798E-01
  5.00000000000000E-01  5.00000000000000E-01 -1.84596673190542E-04
 Cartesian forces (fcart) [Ha/bohr]; max,rms= 6.64556E-05 3.04798E-05 (free atoms)
  0.00000000000000E+00  0.00000000000000E+00 -7.44118975034665E-05
  0.00000000000000E+00  0.00000000000000E+00 -4.66337850201640E-05
  0.00000000000000E+00  0.00000000000000E+00  6.64555866190807E-05
  0.00000000000000E+00  0.00000000000000E+00  6.64555866190807E-05
  0.00000000000000E+00  0.00000000000000E+00 -1.18654907145310E-05
 Reduced forces (fred)
  0.00000000000000E+00  0.00000000000000E+00  6.06799392675110E-04
  0.00000000000000E+00  0.00000000000000E+00  3.96827292347375E-04
  0.00000000000000E+00  0.00000000000000E+00 -4.58004471405813E-04
  0.00000000000000E+00  0.00000000000000E+00 -4.58004471405813E-04
  0.00000000000000E+00  0.00000000000000E+00  1.34017074966520E-04
 Total energy (etotal) [Ha]= -7.13321066635486E+01

 Difference of energy with previous step (new-old):
           Absolute (Ha)= 4.30020E-11
           Relative     = 6.02843E-13

--- Iteration: (25/40) Internal Cycle: (1/1)
--------------------------------------------------------------------------------

---SELF-CONSISTENT-FIELD CONVERGENCE--------------------------------------------

     iter   Etot(hartree)      deltaE(h)  residm     vres2
 ETOT  1  -71.332106652712    -7.133E+01 5.334E-07 4.775E-06
 ETOT  2  -71.332106652899    -1.867E-10 5.125E-07 2.214E-06
 ETOT  3  -71.332106652934    -3.516E-11 3.428E-07 1.609E-06

 At SCF step    3, etot is converged : 
  for the second time, diff in etot=  3.516E-11 < toldfe=  1.000E-07

 Cartesian components of stress tensor (hartree/bohr^3)
  sigma(1 1)=  1.89412550E-03  sigma(3 2)=  0.00000000E+00
  sigma(2 2)=  1.89412550E-03  sigma(3 1)=  0.00000000E+00
  sigma(3 3)=  2.02314639E-03  sigma(2 1)=  0.00000000E+00
 

---OUTPUT-----------------------------------------------------------------------

 Cartesian coordinates (xcart) [bohr]
  0.00000000000000E+00  0.00000000000000E+00  0.00000000000000E+00
  3.74165774311357E+00  3.74165774311357E+00  3.78168919528772E+00
  0.00000000000000E+00  3.74165774311357E+00  3.77707315077730E+00
  3.74165774311357E+00  0.00000000000000E+00  3.77707315077730E+00
  3.74165774311357E+00  3.74165774311357E+00 -1.64903202694007E-03
 Reduced coordinates (xred)
  0.00000000000000E+00  0.00000000000000E+00  0.00000000000000E+00
  5.00000000000000E-01  5.00000000000000E-01  5.00295933029330E-01
  0.00000000000000E+00  5.00000000000000E-01  4.99685256642141E-01
  5.00000000000000E-01  0.00000000000000E+00  4.99685256642142E-01
  5.00000000000000E-01  5.00000000000000E-01 -2.18157541222914E-04
 Cartesian forces (fcart) [Ha/bohr]; max,rms= 7.80783E-05 3.41927E-05 (free atoms)
  0.00000000000000E+00  0.00000000000000E+00 -1.08411088097346E-04
  0.00000000000000E+00  0.00000000000000E+00 -4.25469893515661E-05
  0.00000000000000E+00  0.00000000000000E+00  7.80783322370486E-05
  0.00000000000000E+00  0.00000000000000E+00  7.80783322370486E-05
  0.00000000000000E+00  0.00000000000000E+00 -5.19858702518475E-06
 Reduced forces (fred)
  0.00000000000000E+00  0.00000000000000E+00  8.90341780355941E-04
  0.00000000000000E+00  0.00000000000000E+00  3.92481345880496E-04
  0.00000000000000E+00  0.00000000000000E+00 -5.19313944094464E-04
  0.00000000000000E+00  0.00000000000000E+00 -5.19313944094464E-04
  0.00000000000000E+00  0.00000000000000E+00  1.10168338289737E-04
 Total energy (etotal) [Ha]= -7.13321066529339E+01

 Difference of energy with previous step (new-old):
           Absolute (Ha)= 1.06147E-08
           Relative     = 1.48807E-10

--- Iteration: (26/40) Internal Cycle: (1/1)
--------------------------------------------------------------------------------

---SELF-CONSISTENT-FIELD CONVERGENCE--------------------------------------------

     iter   Etot(hartree)      deltaE(h)  residm     vres2
 ETOT  1  -71.332106594387    -7.133E+01 7.712E-07 7.842E-05
 ETOT  2  -71.332106456132     1.383E-07 7.971E-07 2.500E-04
 ETOT  3  -71.332106649651    -1.935E-07 1.709E-07 3.208E-06
 ETOT  4  -71.332106657454    -7.803E-09 7.105E-07 2.936E-07
 ETOT  5  -71.332106657473    -1.863E-11 1.544E-07 6.186E-07

 At SCF step    5, etot is converged : 
  for the second time, diff in etot=  1.863E-11 < toldfe=  1.000E-07

 Cartesian components of stress tensor (hartree/bohr^3)
  sigma(1 1)=  1.89402580E-03  sigma(3 2)=  0.00000000E+00
  sigma(2 2)=  1.89402580E-03  sigma(3 1)=  0.00000000E+00
  sigma(3 3)=  2.02304145E-03  sigma(2 1)=  0.00000000E+00
 

---OUTPUT-----------------------------------------------------------------------

 Cartesian coordinates (xcart) [bohr]
  0.00000000000000E+00  0.00000000000000E+00  0.00000000000000E+00
  3.74165774311357E+00  3.74165774311357E+00  3.78246717303925E+00
  0.00000000000000E+00  3.74165774311357E+00  3.77761877078963E+00
  3.74165774311357E+00  0.00000000000000E+00  3.77761877078963E+00
  3.74165774311357E+00  3.74165774311357E+00 -1.01190096626197E-03
 Reduced coordinates (xred)
  0.00000000000000E+00  0.00000000000000E+00  0.00000000000000E+00
  5.00000000000000E-01  5.00000000000000E-01  5.00398855053054E-01
  0.00000000000000E+00  5.00000000000000E-01  4.99757439060911E-01
  5.00000000000000E-01  0.00000000000000E+00  4.99757439060911E-01
  5.00000000000000E-01  5.00000000000000E-01 -1.33868732174008E-04
 Cartesian forces (fcart) [Ha/bohr]; max,rms= 7.17319E-05 3.10886E-05 (free atoms)
  0.00000000000000E+00  0.00000000000000E+00 -1.92680281675942E-05
  0.00000000000000E+00  0.00000000000000E+00 -7.17318822211075E-05
  0.00000000000000E+00  0.00000000000000E+00  5.51399345459007E-05
  0.00000000000000E+00  0.00000000000000E+00  5.51399345459007E-05
  0.00000000000000E+00  0.00000000000000E+00 -1.92799587030997E-05
 Reduced forces (fred)
  0.00000000000000E+00  0.00000000000000E+00  1.85606330879475E-04
  0.00000000000000E+00  0.00000000000000E+00  5.82175595026765E-04
  0.00000000000000E+00  0.00000000000000E+00 -3.76836355658412E-04
  0.00000000000000E+00  0.00000000000000E+00 -3.76836355658412E-04
  0.00000000000000E+00  0.00000000000000E+00  1.85696512658372E-04
 Total energy (etotal) [Ha]= -7.13321066574725E+01

 Difference of energy with previous step (new-old):
           Absolute (Ha)=-4.53859E-09
           Relative     =-6.36262E-11

--- Iteration: (27/40) Internal Cycle: (1/1)
--------------------------------------------------------------------------------

---SELF-CONSISTENT-FIELD CONVERGENCE--------------------------------------------

     iter   Etot(hartree)      deltaE(h)  residm     vres2
 ETOT  1  -71.332106678009    -7.133E+01 1.778E-07 6.340E-06
 ETOT  2  -71.332106589823     8.819E-08 1.715E-07 1.941E-05
 ETOT  3  -71.332106584045     5.778E-09 4.506E-07 1.524E-06

 At SCF step    3, etot is converged : 
  for the second time, diff in etot=  5.778E-09 < toldfe=  1.000E-07

 Cartesian components of stress tensor (hartree/bohr^3)
  sigma(1 1)=  1.89357507E-03  sigma(3 2)=  0.00000000E+00
  sigma(2 2)=  1.89357507E-03  sigma(3 1)=  0.00000000E+00
  sigma(3 3)=  2.02261679E-03  sigma(2 1)=  0.00000000E+00
 

---OUTPUT-----------------------------------------------------------------------

 Cartesian coordinates (xcart) [bohr]
  0.00000000000000E+00  0.00000000000000E+00  0.00000000000000E+00
  3.74165774311357E+00  3.74165774311357E+00  3.78237675446077E+00
  0.00000000000000E+00  3.74165774311357E+00  3.77753220696786E+00
  3.74165774311357E+00  0.00000000000000E+00  3.77753220696786E+00
  3.74165774311357E+00  3.74165774311357E+00 -1.10483496527352E-03
 Reduced coordinates (xred)
  0.00000000000000E+00  0.00000000000000E+00  0.00000000000000E+00
  5.00000000000000E-01  5.00000000000000E-01  5.00386893190313E-01
  0.00000000000000E+00  5.00000000000000E-01  4.99745987160518E-01
  5.00000000000000E-01  0.00000000000000E+00  4.99745987160518E-01
  5.00000000000000E-01  5.00000000000000E-01 -1.46163370719017E-04
 Cartesian forces (fcart) [Ha/bohr]; max,rms= 1.40096E-04 6.26958E-05 (free atoms)
  0.00000000000000E+00  0.00000000000000E+00 -1.08587275112100E-04
  0.00000000000000E+00  0.00000000000000E+00 -1.40095846378064E-04
  0.00000000000000E+00  0.00000000000000E+00  1.16874305189160E-04
  0.00000000000000E+00  0.00000000000000E+00  1.16874305189160E-04
  0.00000000000000E+00  0.00000000000000E+00  1.49345111118447E-05
 Reduced forces (fred)
  0.00000000000000E+00  0.00000000000000E+00  3.19084181573965E-04
  0.00000000000000E+00  0.00000000000000E+00  5.57254463698693E-04
  0.00000000000000E+00  0.00000000000000E+00 -1.38515837945398E-03
  0.00000000000000E+00  0.00000000000000E+00 -1.38515837945398E-03
  0.00000000000000E+00  0.00000000000000E+00 -6.14605208058446E-04
 Total energy (etotal) [Ha]= -7.13321065840448E+01

 Difference of energy with previous step (new-old):
           Absolute (Ha)= 7.34277E-08
           Relative     = 1.02938E-09

--- Iteration: (28/40) Internal Cycle: (1/1)
--------------------------------------------------------------------------------

---SELF-CONSISTENT-FIELD CONVERGENCE--------------------------------------------

     iter   Etot(hartree)      deltaE(h)  residm     vres2
 ETOT  1  -71.332106020717    -7.133E+01 4.951E-07 2.157E-05
 ETOT  2  -71.332105416328     6.044E-07 4.716E-07 2.061E-05
 ETOT  3  -71.332105281260     1.351E-07 1.272E-07 1.357E-05
 ETOT  4  -71.332105294781    -1.352E-08 4.459E-07 1.887E-06
 ETOT  5  -71.332105242144     5.264E-08 1.203E-07 2.282E-06

 At SCF step    5, etot is converged : 
  for the second time, diff in etot=  5.264E-08 < toldfe=  1.000E-07

 Cartesian components of stress tensor (hartree/bohr^3)
  sigma(1 1)=  1.89389465E-03  sigma(3 2)=  0.00000000E+00
  sigma(2 2)=  1.89389465E-03  sigma(3 1)=  0.00000000E+00
  sigma(3 3)=  2.02290357E-03  sigma(2 1)=  0.00000000E+00
 

---OUTPUT-----------------------------------------------------------------------

 Cartesian coordinates (xcart) [bohr]
  0.00000000000000E+00  0.00000000000000E+00  0.00000000000000E+00
  3.74165774311357E+00  3.74165774311357E+00  3.78243581745721E+00
  0.00000000000000E+00  3.74165774311357E+00  3.77761474843153E+00
  3.74165774311357E+00  0.00000000000000E+00  3.77761474843154E+00
  3.74165774311357E+00  3.74165774311357E+00 -1.02295967764157E-03
 Reduced coordinates (xred)
  0.00000000000000E+00  0.00000000000000E+00  0.00000000000000E+00
  5.00000000000000E-01  5.00000000000000E-01  5.00394706888211E-01
  0.00000000000000E+00  5.00000000000000E-01  4.99756906925853E-01
  5.00000000000000E-01  0.00000000000000E+00  4.99756906925854E-01
  5.00000000000000E-01  5.00000000000000E-01 -1.35331736678623E-04
 Cartesian forces (fcart) [Ha/bohr]; max,rms= 1.05677E-03 4.77957E-04 (free atoms)
  0.00000000000000E+00  0.00000000000000E+00  1.12412700714439E-03
  0.00000000000000E+00  0.00000000000000E+00  1.05676596164420E-03
  0.00000000000000E+00  0.00000000000000E+00 -6.46204831995474E-04
  0.00000000000000E+00  0.00000000000000E+00 -6.46204831995474E-04
  0.00000000000000E+00  0.00000000000000E+00 -8.88483304797644E-04
 Reduced forces (fred)
  0.00000000000000E+00  0.00000000000000E+00 -5.54039351863155E-04
  0.00000000000000E+00  0.00000000000000E+00 -4.48636397823800E-05
  0.00000000000000E+00  0.00000000000000E+00  1.28277300093452E-02
  0.00000000000000E+00  0.00000000000000E+00  1.28277300093452E-02
  0.00000000000000E+00  0.00000000000000E+00  1.46590898553048E-02
 Total energy (etotal) [Ha]= -7.13321052421437E+01

 Difference of energy with previous step (new-old):
           Absolute (Ha)= 1.34190E-06
           Relative     = 1.88120E-08

--- Iteration: (29/40) Internal Cycle: (1/1)
--------------------------------------------------------------------------------

---SELF-CONSISTENT-FIELD CONVERGENCE--------------------------------------------

     iter   Etot(hartree)      deltaE(h)  residm     vres2
 ETOT  1  -71.332106402611    -7.133E+01 1.402E-07 3.173E-05
 ETOT  2  -71.332106402172     4.396E-10 1.330E-07 2.845E-05
 ETOT  3  -71.332106425222    -2.305E-08 3.232E-07 2.122E-06

 At SCF step    3, etot is converged : 
  for the second time, diff in etot=  2.305E-08 < toldfe=  1.000E-07

 Cartesian components of stress tensor (hartree/bohr^3)
  sigma(1 1)=  1.89411366E-03  sigma(3 2)=  0.00000000E+00
  sigma(2 2)=  1.89411366E-03  sigma(3 1)=  0.00000000E+00
  sigma(3 3)=  2.02312320E-03  sigma(2 1)=  0.00000000E+00
 

---OUTPUT-----------------------------------------------------------------------

 Cartesian coordinates (xcart) [bohr]
  0.00000000000000E+00  0.00000000000000E+00  0.00000000000000E+00
  3.74165774311357E+00  3.74165774311357E+00  3.78233699302501E+00
  0.00000000000000E+00  3.74165774311357E+00  3.77752061252040E+00
  3.74165774311357E+00  0.00000000000000E+00  3.77752061252040E+00
  3.74165774311357E+00  3.74165774311357E+00 -1.12437381242797E-03
 Reduced coordinates (xred)
  0.00000000000000E+00  0.00000000000000E+00  0.00000000000000E+00
  5.00000000000000E-01  5.00000000000000E-01  5.00381632978917E-01
  0.00000000000000E+00  5.00000000000000E-01  4.99744453281183E-01
  5.00000000000000E-01  0.00000000000000E+00  4.99744453281184E-01
  5.00000000000000E-01  5.00000000000000E-01 -1.48748248868082E-04
 Cartesian forces (fcart) [Ha/bohr]; max,rms= 1.37602E-04 4.20013E-05 (free atoms)
  0.00000000000000E+00  0.00000000000000E+00  7.26901982847668E-05
  0.00000000000000E+00  0.00000000000000E+00  4.51681160383670E-05
  0.00000000000000E+00  0.00000000000000E+00  9.87167192198413E-06
  0.00000000000000E+00  0.00000000000000E+00  9.87167192198413E-06
  0.00000000000000E+00  0.00000000000000E+00 -1.37601658167102E-04
 Reduced forces (fred)
  0.00000000000000E+00  0.00000000000000E+00  2.51662091249399E-04
  0.00000000000000E+00  0.00000000000000E+00  4.59698883459199E-04
  0.00000000000000E+00  0.00000000000000E+00  7.26501334837864E-04
  0.00000000000000E+00  0.00000000000000E+00  7.26501334837864E-04
  0.00000000000000E+00  0.00000000000000E+00  1.84123815792993E-03
 Total energy (etotal) [Ha]= -7.13321064252222E+01

 Difference of energy with previous step (new-old):
           Absolute (Ha)=-1.18308E-06
           Relative     =-1.65855E-08

--- Iteration: (30/40) Internal Cycle: (1/1)
--------------------------------------------------------------------------------

---SELF-CONSISTENT-FIELD CONVERGENCE--------------------------------------------

     iter   Etot(hartree)      deltaE(h)  residm     vres2
 ETOT  1  -71.332106474578    -7.133E+01 2.929E-07 2.934E-05
 ETOT  2  -71.332106455285     1.929E-08 2.737E-07 3.917E-05
 ETOT  3  -71.332106479530    -2.425E-08 1.439E-07 2.414E-06

 At SCF step    3, etot is converged : 
  for the second time, diff in etot=  2.425E-08 < toldfe=  1.000E-07

 Cartesian components of stress tensor (hartree/bohr^3)
  sigma(1 1)=  1.89358892E-03  sigma(3 2)=  0.00000000E+00
  sigma(2 2)=  1.89358892E-03  sigma(3 1)=  0.00000000E+00
  sigma(3 3)=  2.02256879E-03  sigma(2 1)=  0.00000000E+00
 

---OUTPUT-----------------------------------------------------------------------

 Cartesian coordinates (xcart) [bohr]
  0.00000000000000E+00  0.00000000000000E+00  0.00000000000000E+00
  3.74165774311357E+00  3.74165774311357E+00  3.78228686935749E+00
  0.00000000000000E+00  3.74165774311357E+00  3.77749528125619E+00
  3.74165774311357E+00  0.00000000000000E+00  3.77749528125619E+00
  3.74165774311357E+00  3.74165774311357E+00 -1.15779982793474E-03
 Reduced coordinates (xred)
[...]
 ETOT  117  -71.310086501053    -1.547E-06 3.824E-08 9.293E-05
 ETOT  118  -71.310081890482     4.611E-06 8.794E-09 2.316E-04
 ETOT  119  -71.310086800882    -4.910E-06 3.274E-08 1.148E-04
 ETOT  120  -71.310083058528     3.742E-06 7.752E-09 1.168E-04
 ETOT  121  -71.310084159694    -1.101E-06 2.839E-08 7.957E-05
 ETOT  122  -71.310084255974    -9.628E-08 8.238E-09 8.223E-05
 ETOT  123  -71.310084984870    -7.289E-07 9.159E-08 3.121E-04
 ETOT  124  -71.310085710254    -7.254E-07 5.090E-08 6.717E-05
 ETOT  125  -71.310086053407    -3.432E-07 2.258E-08 5.479E-05
 ETOT  126  -71.310085876751     1.767E-07 1.053E-08 9.862E-05
 ETOT  127  -71.310085388547     4.882E-07 2.239E-08 1.123E-04
 ETOT  128  -71.310085916452    -5.279E-07 1.041E-08 8.456E-05
 ETOT  129  -71.310085903842     1.261E-08 2.210E-08 8.244E-05
 ETOT  130  -71.310086108398    -2.046E-07 1.016E-08 7.212E-05
 ETOT  131  -71.310086155439    -4.704E-08 2.202E-08 6.996E-05
 ETOT  132  -71.310086777484    -6.220E-07 9.949E-09 2.348E-05
 ETOT  133  -71.310085066742     1.711E-06 2.228E-08 1.079E-05
 ETOT  134  -71.310086222042    -1.155E-06 9.971E-09 4.799E-06
 ETOT  135  -71.310084408573     1.813E-06 2.143E-08 4.938E-05
 ETOT  136  -71.310084952263    -5.437E-07 9.654E-09 3.818E-04
 ETOT  137  -71.310083673508     1.279E-06 2.141E-08 1.776E-04
 ETOT  138  -71.310081878215     1.795E-06 9.480E-09 1.539E-04
 ETOT  139  -71.310085232673    -3.354E-06 2.099E-08 2.771E-05
 ETOT  140  -71.310084442509     7.902E-07 9.322E-09 4.343E-05
 ETOT  141  -71.310085295892    -8.534E-07 2.090E-08 4.170E-05
 ETOT  142  -71.310084949310     3.466E-07 9.420E-09 4.154E-05
 ETOT  143  -71.310085141686    -1.924E-07 2.055E-08 2.898E-05
 ETOT  144  -71.310085429014    -2.873E-07 9.358E-09 1.541E-05
 ETOT  145  -71.310085503286    -7.427E-08 2.022E-08 9.803E-06
 ETOT  146  -71.310085474899     2.839E-08 9.423E-09 1.435E-05

 At SCF step  146, etot is converged : 
  for the second time, diff in etot=  2.839E-08 < toldfe=  1.000E-07

 Cartesian components of stress tensor (hartree/bohr^3)
  sigma(1 1)=  1.85774457E-03  sigma(3 2)=  0.00000000E+00
  sigma(2 2)=  1.85774457E-03  sigma(3 1)=  0.00000000E+00
  sigma(3 3)=  2.01098671E-03  sigma(2 1)=  0.00000000E+00
 

---OUTPUT-----------------------------------------------------------------------

 Cartesian coordinates (xcart) [bohr]
  0.00000000000000E+00  0.00000000000000E+00  0.00000000000000E+00
  3.74165774311357E+00  3.74165774311357E+00  3.78293693134786E+00
  0.00000000000000E+00  3.74165774311357E+00  3.77778277898126E+00
  3.74165774311357E+00  0.00000000000000E+00  3.77778277898126E+00
  3.74165774311357E+00  3.74165774311357E+00 -7.69017542095037E-04
 Reduced coordinates (xred)
  0.00000000000000E+00  0.00000000000000E+00  0.00000000000000E+00
  5.00000000000000E-01  5.00000000000000E-01  5.00461001400670E-01
  0.00000000000000E+00  5.00000000000000E-01  4.99779136410169E-01
  5.00000000000000E-01  0.00000000000000E+00  4.99779136410169E-01
  5.00000000000000E-01  5.00000000000000E-01 -1.01736639070649E-04
 Cartesian forces (fcart) [Ha/bohr]; max,rms= 9.45404E-02 4.22316E-02 (free atoms)
  0.00000000000000E+00  0.00000000000000E+00 -9.57317820285683E-02
  0.00000000000000E+00  0.00000000000000E+00 -9.45403741100106E-02
  0.00000000000000E+00  0.00000000000000E+00  5.52958036089284E-02
  0.00000000000000E+00  0.00000000000000E+00  5.52958036089284E-02
  0.00000000000000E+00  0.00000000000000E+00  7.96805489207222E-02
 Reduced forces (fred)
  0.00000000000000E+00  0.00000000000000E+00  6.83652993689938E-02
  0.00000000000000E+00  0.00000000000000E+00  5.93595606544924E-02
  0.00000000000000E+00  0.00000000000000E+00 -1.07323780209421E+00
  0.00000000000000E+00  0.00000000000000E+00 -1.07323780209421E+00
  0.00000000000000E+00  0.00000000000000E+00 -1.25755976393204E+00
 Total energy (etotal) [Ha]= -7.13100854748994E+01

 Difference of energy with previous step (new-old):
           Absolute (Ha)= 1.96751E-02
           Relative     = 2.75871E-04

 fconv : WARNING -
  ntime=   40 was not enough Broyd/MD steps to converge gradients: 
  max grad (force/stress) = 9.4540E-02 > tolmxf= 1.0000E-05 ha/bohr (free atoms)

================================================================================

 ----iterations are completed or convergence reached----

 Mean square residual over all n,k,spin=   1.3131E-10; max=  9.4232E-09
   0.1250  0.1250  0.1250    1  1.70037E-09 kpt; spin; max resid(k); each band:
  3.73E-11 2.25E-13 4.56E-12 1.16E-12 1.29E-13 7.57E-12 3.33E-11 1.60E-11
  3.00E-11 9.99E-11 8.19E-11 2.75E-11 8.71E-11 3.39E-11 1.86E-11 1.70E-09
   0.3750  0.1250  0.1250    1  5.79445E-11 kpt; spin; max resid(k); each band:
  2.46E-11 1.97E-11 1.73E-12 6.95E-13 2.68E-12 6.02E-12 3.32E-12 2.54E-11
  2.67E-11 1.79E-11 1.84E-11 1.34E-11 5.79E-11 5.58E-12 4.25E-12 4.21E-13
   0.3750  0.3750  0.1250    1  5.33914E-12 kpt; spin; max resid(k); each band:
  2.31E-12 1.22E-14 1.83E-12 7.94E-14 2.32E-13 1.65E-13 1.03E-12 8.44E-13
  5.55E-13 8.25E-13 5.34E-12 1.19E-12 6.71E-13 5.33E-13 7.63E-13 1.35E-12
   0.1250  0.1250  0.3750    1  1.90852E-11 kpt; spin; max resid(k); each band:
  1.41E-12 1.01E-12 1.24E-12 1.32E-13 1.15E-12 6.84E-13 1.91E-11 1.48E-11
  1.16E-11 1.69E-11 1.22E-11 1.87E-11 1.50E-11 1.65E-11 1.47E-11 2.03E-12
   0.3750  0.1250  0.3750    1  8.06971E-11 kpt; spin; max resid(k); each band:
  7.88E-12 7.94E-12 5.46E-13 1.08E-12 5.64E-13 3.38E-13 1.01E-11 1.34E-12
  4.09E-13 1.47E-12 7.74E-13 1.14E-12 3.19E-13 5.42E-13 1.00E-11 8.07E-11
   0.3750  0.3750  0.3750    1  9.42322E-09 kpt; spin; max resid(k); each band:
  2.13E-10 2.05E-14 1.57E-12 1.66E-13 3.35E-11 3.26E-12 1.55E-11 9.86E-14
  2.26E-11 2.82E-11 2.42E-11 2.10E-11 1.56E-11 9.42E-11 1.15E-11 9.42E-09
 reduced coordinates (array xred) for    5 atoms
       0.000000000000      0.000000000000      0.000000000000
       0.500000000000      0.500000000000      0.500461001401
       0.000000000000      0.500000000000      0.499779136410
       0.500000000000      0.000000000000      0.499779136410
       0.500000000000      0.500000000000     -0.000101736639
 rms dE/dt=  5.0947E-01; max dE/dt=  6.8365E-02; dE/dt below (all hartree)
    1       0.000000000000      0.000000000000      0.068365299369
    2       0.000000000000      0.000000000000      0.059359560654
    3       0.000000000000      0.000000000000     -1.073237802094
    4       0.000000000000      0.000000000000     -1.073237802094
    5       0.000000000000      0.000000000000     -1.257559763932
 
 cartesian coordinates (angstrom) at end:
    1      0.00000000000000     0.00000000000000     0.00000000000000
    2      1.98000000000000     1.98000000000000     2.00184400560268
    3      0.00000000000000     1.98000000000000     1.99911654564068
    4      1.98000000000000     0.00000000000000     1.99911654564068
    5      1.98000000000000     1.98000000000000    -0.00040694655628

 cartesian forces (hartree/bohr) at end:
    1      0.00000000000000     0.00000000000000    -0.09573178202857
    2      0.00000000000000     0.00000000000000    -0.09454037411001
    3      0.00000000000000     0.00000000000000     0.05529580360893
    4      0.00000000000000     0.00000000000000     0.05529580360893
    5      0.00000000000000     0.00000000000000     0.07968054892072
 frms,max,avg= 4.2231627E-02 9.4540374E-02   0.000E+00  0.000E+00  8.669E-02 h/b

 cartesian forces (eV/Angstrom) at end:
    1      0.00000000000000     0.00000000000000    -4.92272574497731
    2      0.00000000000000     0.00000000000000    -4.86146109170152
    3      0.00000000000000     0.00000000000000     2.84342430744316
    4      0.00000000000000     0.00000000000000     2.84342430744316
    5      0.00000000000000     0.00000000000000     4.09733822179252
 frms,max,avg= 2.1716374E+00 4.8614611E+00   0.000E+00  0.000E+00  4.458E+00 e/A
 length scales=  7.483315486227  7.483315486227  7.558904531543 bohr
              =  3.960000000000  3.960000000000  4.000000000000 angstroms
 Fermi (or HOMO) energy (hartree) =  -0.25847   Average Vxc (hartree)=  -0.43205
 Eigenvalues (hartree) for nkpt=   6  k points:
 kpt#   1, nband= 16, wtk=  0.12500, kpt=  0.1250  0.1250  0.1250 (reduced coord)
  -0.90162  -0.86074  -0.85943  -0.60739  -0.60694  -0.59706  -0.37596  -0.35535
  -0.35421  -0.31956  -0.31902  -0.29780  -0.28701  -0.26561  -0.26543  -0.16138
 kpt#   2, nband= 16, wtk=  0.25000, kpt=  0.3750  0.1250  0.1250 (reduced coord)
  -0.89646  -0.86584  -0.85928  -0.60600  -0.60220  -0.59216  -0.40243  -0.37195
  -0.36699  -0.35760  -0.33743  -0.31213  -0.29560  -0.28605  -0.28513  -0.15562
 kpt#   3, nband= 16, wtk=  0.12500, kpt=  0.3750  0.3750  0.1250 (reduced coord)
  -0.88319  -0.86688  -0.86186  -0.61275  -0.61060  -0.59564  -0.41512  -0.39751
  -0.38023  -0.35767  -0.34856  -0.32686  -0.29257  -0.27878  -0.26281  -0.11783
 kpt#   4, nband= 16, wtk=  0.12500, kpt=  0.1250  0.1250  0.3750 (reduced coord)
  -0.89634  -0.86266  -0.85886  -0.60570  -0.60146  -0.59168  -0.39887  -0.36957
  -0.36716  -0.35675  -0.33455  -0.31142  -0.29316  -0.28450  -0.28325  -0.15459
 kpt#   5, nband= 16, wtk=  0.25000, kpt=  0.3750  0.1250  0.3750 (reduced coord)
  -0.88376  -0.86552  -0.86157  -0.61157  -0.60994  -0.59479  -0.41393  -0.39499
  -0.37765  -0.35765  -0.34735  -0.32795  -0.29411  -0.28148  -0.26333  -0.11924
 kpt#   6, nband= 16, wtk=  0.12500, kpt=  0.3750  0.3750  0.3750 (reduced coord)
  -0.87206  -0.86274  -0.86140  -0.62907  -0.62825  -0.61718  -0.42350  -0.38030
  -0.37744  -0.35970  -0.33899  -0.33670  -0.26911  -0.26697  -0.25847  -0.09900
 Total charge density [el/Bohr^3]
,     Maximum=    8.9206E-01  at reduced coord.    0.4688    0.5625    0.0000
,Next maximum=    8.9206E-01  at reduced coord.    0.5313    0.5625    0.0000
,     Minimum=    6.5614E-06  at reduced coord.    0.0000    0.0000    0.0000
,Next minimum=    4.3502E-04  at reduced coord.    0.5000    0.5000    0.0000
,  Integrated=    3.0000E+01

--------------------------------------------------------------------------------
 Components of total free energy (in Hartree) :

    Kinetic energy  =  4.30373767797020E+01
    Hartree energy  =  1.40221659730051E+01
    XC energy       = -2.03117748269107E+01
    Ewald energy    = -5.94085868591758E+01
    PspCore energy  =  1.74051532122998E+01
    Loc. psp. energy= -5.54755303413960E+01
    NL   psp  energy= -1.05788894124238E+01
    >>>>>>>>> Etotal= -7.13100854748994E+01

 Other information on the energy :
    Total energy(eV)= -1.94044610894690E+03 ; Band energy (Ha)=  -1.4876922251E+01
--------------------------------------------------------------------------------
 rms coord change=  1.1750E-03   atom, delta coord (reduced):
     1        0.000000000000      0.000000000000      0.000000000000
     2        0.000000000000      0.000000000000     -0.004538998599
     3        0.000000000000      0.000000000000     -0.000220863590
     4        0.000000000000      0.000000000000     -0.000220863590
     5        0.000000000000      0.000000000000     -0.000101736639

 Cartesian components of stress tensor (hartree/bohr^3)
  sigma(1 1)=  1.85774457E-03  sigma(3 2)=  0.00000000E+00
  sigma(2 2)=  1.85774457E-03  sigma(3 1)=  0.00000000E+00
  sigma(3 3)=  2.01098671E-03  sigma(2 1)=  0.00000000E+00

-Cartesian components of stress tensor (GPa)         [Pressure= -5.6160E+01 GPa]
- sigma(1 1)=  5.46567232E+01  sigma(3 2)=  0.00000000E+00
- sigma(2 2)=  5.46567232E+01  sigma(3 1)=  0.00000000E+00
- sigma(3 3)=  5.91652618E+01  sigma(2 1)=  0.00000000E+00

== END DATASET(S) ==============================================================
================================================================================
  
 -outvars: echo values of variables after computation  --------
        accesswff           1
            acell      7.4833154862E+00  7.4833154862E+00  7.5589045315E+00 Bohr
              amu      1.37327000E+02  4.78800000E+01  1.59994000E+01
           diemac      4.00000000E+03
             ecut      2.00000000E+01 Hartree
           etotal1    -7.1310085475E+01
            fcart1     0.0000000000E+00  0.0000000000E+00 -9.5731782029E-02
                       0.0000000000E+00  0.0000000000E+00 -9.4540374110E-02
                       0.0000000000E+00  0.0000000000E+00  5.5295803609E-02
                       0.0000000000E+00  0.0000000000E+00  5.5295803609E-02
                       0.0000000000E+00  0.0000000000E+00  7.9680548921E-02
           fftalg         401
      fft_opt_lob           2
           iatfix        1
           ionmov           2
           iprcch           6
           jdtset        1
              kpt      1.25000000E-01  1.25000000E-01  1.25000000E-01
                       3.75000000E-01  1.25000000E-01  1.25000000E-01
                       3.75000000E-01  3.75000000E-01  1.25000000E-01
                       1.25000000E-01  1.25000000E-01  3.75000000E-01
                       3.75000000E-01  1.25000000E-01  3.75000000E-01
                       3.75000000E-01  3.75000000E-01  3.75000000E-01
         kptrlatt        4    0    0      0    4    0      0    0    4
          kptrlen      2.99332619E+01
P           mkmem           1
           natfix           1
            natom           5
            nband          16
           ndtset           1
            ngfft          32      32      32
             nkpt           6
            npfft           4
-           npkpt           6
            nstep         150
             nsym           8
            ntime          25
           ntypat           3
              occ      2.000000  2.000000  2.000000  2.000000  2.000000  2.000000
                       2.000000  2.000000  2.000000  2.000000  2.000000  2.000000
                       2.000000  2.000000  2.000000  0.000000
           ortalg          -2
        paral_kgb           1
           prteig           0
        restartxf          -1
           shiftk      5.00000000E-01  5.00000000E-01  5.00000000E-01
          spgroup          99
           strten1     1.8577445731E-03  1.8577445731E-03  2.0109867133E-03
                       0.0000000000E+00  0.0000000000E+00  0.0000000000E+00
           symrel      1  0  0   0  1  0   0  0  1       1  0  0   0 -1  0   0  0  1
                      -1  0  0   0 -1  0   0  0  1      -1  0  0   0  1  0   0  0  1
                       0  1  0   1  0  0   0  0  1       0  1  0  -1  0  0   0  0  1
                       0 -1  0  -1  0  0   0  0  1       0 -1  0   1  0  0   0  0  1
           toldfe      1.00000000E-07 Hartree
           tolmxf      1.00000000E-05
            typat      1  2  3  3  3
         wfoptalg          14
              wtk        0.12500    0.25000    0.12500    0.12500    0.25000    0.12500
           xangst      0.0000000000E+00  0.0000000000E+00  0.0000000000E+00
                       1.9800000000E+00  1.9800000000E+00  2.0018440056E+00
                       0.0000000000E+00  1.9800000000E+00  1.9991165456E+00
                       1.9800000000E+00  0.0000000000E+00  1.9991165456E+00
                       1.9800000000E+00  1.9800000000E+00 -4.0694655628E-04
            xcart      0.0000000000E+00  0.0000000000E+00  0.0000000000E+00
                       3.7416577431E+00  3.7416577431E+00  3.7829369313E+00
                       0.0000000000E+00  3.7416577431E+00  3.7777827790E+00
                       3.7416577431E+00  0.0000000000E+00  3.7777827790E+00
                       3.7416577431E+00  3.7416577431E+00 -7.6901754210E-04
             xred      0.0000000000E+00  0.0000000000E+00  0.0000000000E+00
                       5.0000000000E-01  5.0000000000E-01  5.0046100140E-01
                       0.0000000000E+00  5.0000000000E-01  4.9977913641E-01
                       5.0000000000E-01  0.0000000000E+00  4.9977913641E-01
                       5.0000000000E-01  5.0000000000E-01 -1.0173663907E-04
            znucl       56.00000   22.00000    8.00000

================================================================================


- Timing analysis has been suppressed with timopt=0



================================================================================

 Suggested references for the acknowledgment of ABINIT usage.

 The users of ABINIT have little formal obligations with respect to the ABINIT group
 (those specified in the GNU General Public License, http://www.gnu.org/copyleft/gpl.txt).
 However, it is common practice in the scientific literature,
 to acknowledge the efforts of people that have made the research possible.
 In this spirit, please find below suggested citations of work written by ABINIT developers,
 corresponding to implementations inside of ABINIT that you have used in the present run.
 Note also that it will be of great value to readers of publications presenting these results,
 to read papers enabling them to understand the theoretical formalism and details
 of the ABINIT implementation.
 For information on why they are suggested, see also http://www.abinit.org/about/?text=acknowledgments.

 [1] Large scale ab initio calculations based on three levels of parallelization
 F. Bottin, S. Leroux, A. Knyazev, G. Zerah, Comput. Mat. Science 42, 329, (2008).
 Comment : in case paral_kgb is non-zero. Strong suggestion to cite this paper in your publications.
 This paper is also available at http://www.arxiv.org/abs/0707.3405

 [2] ABINIT : First-principles approach of materials and nanosystem properties.
 X. Gonze, B. Amadon, P.-M. Anglade, J.-M. Beuken, F. Bottin, P. Boulanger, F. Bruneval,
 D. Caliste, R. Caracas, M. Cote, T. Deutsch, L. Genovese, Ph. Ghosez, M. Giantomassi
 S. Goedecker, D.R. Hamann, P. Hermet, F. Jollet, G. Jomard, S. Leroux, M. Mancini, S. Mazevet,
 M.J.T. Oliveira, G. Onida, Y. Pouillon, T. Rangel, G.-M. Rignanese, D. Sangalli, R. Shaltaf,
 M. Torrent, M.J. Verstraete, G. Zerah, J.W. Zwanziger
 Computer Phys. Comm. 180, 2582-2615 (2009).
 Comment : the third generic paper describing the ABINIT project.
 Note that a version of this paper, that is not formatted for Computer Phys. Comm. 
 is available at http://www.abinit.org/about/ABINIT_CPC_v10.pdf .
 The licence allows the authors to put it on the Web.

 [3] A brief introduction to the ABINIT software package.
 X. Gonze, G.-M. Rignanese, M. Verstraete, J.-M. Beuken, Y. Pouillon, R. Caracas, F. Jollet,
 M. Torrent, G. Zerah, M. Mikami, Ph. Ghosez, M. Veithen, J.-Y. Raty, V. Olevano, F. Bruneval,
 L. Reining, R. Godby, G. Onida, D.R. Hamann, and D.C. Allan.
 Z. Kristallogr. 220, 558-562 (2005).
 Comment : the second generic paper describing the ABINIT project. Note that this paper
 should be cited especially if you are using the GW part of ABINIT, as several authors
 of this part are not in the list of authors of the first or third paper.
 The .pdf of the latter paper is available at http://www.abinit.org/about/zfk_0505-06_558-562.pdf.
 Note that it should not redistributed (Copyright by Oldenburg Wissenshaftverlag,
 the licence allows the authors to put it on the Web).


 And optionally :

 [4] First-principles computation of material properties : the ABINIT software project. 
 X. Gonze, J.-M. Beuken, R. Caracas, F. Detraux, M. Fuchs, G.-M. Rignanese, L. Sindic,
 M. Verstraete, G. Zerah, F. Jollet, M. Torrent, A. Roy, M. Mikami, Ph. Ghosez, J.-Y. Raty, D.C. Allan.
 Computational Materials Science 25, 478-492 (2002). http://dx.doi.org/10.1016/S0927-0256(02)00325-7
 Comment : the original paper describing the ABINIT project.

 [5] Fast radix 2, 3, 4 and 5 kernels for Fast Fourier Transformations
 on computers with overlapping multiply-add instructions.
 S. Goedecker, SIAM J. on Scientific Computing 18, 1605 (1997).
-
- Proc.   0 individual time (sec): cpu=         17.9  wall=         20.8

================================================================================

 Calculation completed.
.Delivered    4 WARNINGs and  28 COMMENTs to log file.
+Overall time at end (sec) : cpu=        461.1  wall=        502.8
