
.Version 7.4.3 of ABINIT 
.(MPI version, prepared for a x86_64_linux_intel13.1 computer) 

.Copyright (C) 1998-2013 ABINIT group . 
 ABINIT comes with ABSOLUTELY NO WARRANTY.
 It is free software, and you are welcome to redistribute it
 under certain conditions (GNU General Public License,
 see ~abinit/COPYING or http://www.gnu.org/copyleft/gpl.txt).

 ABINIT is a project of the Universite Catholique de Louvain,
 Corning Inc. and other collaborators, see ~abinit/doc/developers/contributors.txt .
 Please read ~abinit/doc/users/acknowledgments.html for suggested
 acknowledgments of the ABINIT effort.
 For more information, see http://www.abinit.org .

.Starting date : Wed  6 Nov 2013.
- ( at 14h50 )
  
- input  file    -> BTO_structopt.in
- output file    -> BTO_structopt.out
- root for input  files -> in_structopt
- root for output files -> out_structopt


 DATASET    1 : space group P4 m m (# 99); Bravais tP (primitive tetrag.)
================================================================================
 Values of the parameters that define the memory need for DATASET  1.
   intxc =         0  ionmov =         2    iscf =         2 xclevel =         1
  lmnmax =         2   lnmax =         2   mband =        16  mffmem =         1
P  mgfft =        32   mkmem =         1 mpssoang=         3     mpw =       507
  mqgrid =      3001   natom =         5    nfft =      8192    nkpt =         6
  nloalg =         4  nspden =         1 nspinor =         1  nsppol =         1
    nsym =         8  n1xccc =      2501  ntypat =         3  occopt =         1
================================================================================
P This job should need less than                       3.864 Mbytes of memory.
  Rough estimation (10% accuracy) of disk space for files :
_ WF disk file :      2.973 Mbytes ; DEN or POT disk file :      0.065 Mbytes.
================================================================================

--------------------------------------------------------------------------------
------------- Echo of variables that govern the present computation ------------
--------------------------------------------------------------------------------
-
- outvars: echo of selected default values                                      
-   accesswff0 =  0 , fftalg0 =312 , wfoptalg0 =  0
-
- outvars: echo of global parameters not present in the input file              
-  max_nthreads =    0
-
 -outvars: echo values of preprocessed input variables --------
        accesswff           1
            acell      7.4833154862E+00  7.4833154862E+00  7.5589045315E+00 Bohr
              amu      1.37327000E+02  4.78800000E+01  1.59994000E+01
           diemac      4.00000000E+03
             ecut      2.20000000E+01 Hartree
           fftalg         401
      fft_opt_lob           2
           iatfix        1
           ionmov           2
           iprcch           6
             iscf           2
           jdtset        1
              kpt      1.25000000E-01  1.25000000E-01  1.25000000E-01
                       3.75000000E-01  1.25000000E-01  1.25000000E-01
                       3.75000000E-01  3.75000000E-01  1.25000000E-01
                       1.25000000E-01  1.25000000E-01  3.75000000E-01
                       3.75000000E-01  1.25000000E-01  3.75000000E-01
                       3.75000000E-01  3.75000000E-01  3.75000000E-01
         kptrlatt        4    0    0      0    4    0      0    0    4
          kptrlen      2.99332619E+01
P           mkmem           1
           natfix           1
            natom           5
            nband          16
           ndtset           1
            ngfft          32      32      32
             nkpt           6
            npfft           4
-           npkpt           6
            nstep         200
             nsym           8
            ntime          15
           ntypat           3
              occ      2.000000  2.000000  2.000000  2.000000  2.000000  2.000000
                       2.000000  2.000000  2.000000  2.000000  2.000000  2.000000
                       2.000000  2.000000  2.000000  0.000000
           ortalg          -2
        paral_kgb           1
           prteig           0
           shiftk      5.00000000E-01  5.00000000E-01  5.00000000E-01
          spgroup          99
           symrel      1  0  0   0  1  0   0  0  1       1  0  0   0 -1  0   0  0  1
                      -1  0  0   0 -1  0   0  0  1      -1  0  0   0  1  0   0  0  1
                       0  1  0   1  0  0   0  0  1       0  1  0  -1  0  0   0  0  1
                       0 -1  0  -1  0  0   0  0  1       0 -1  0   1  0  0   0  0  1
           toldfe      1.00000000E-09 Hartree
           tolmxf      1.00000000E-05
            typat      1  2  3  3  3
         wfoptalg          14
              wtk        0.12500    0.25000    0.12500    0.12500    0.25000    0.12500
           xangst      0.0000000000E+00  0.0000000000E+00  0.0000000000E+00
                       1.9800000000E+00  1.9800000000E+00  2.0200000000E+00
                       0.0000000000E+00  1.9800000000E+00  2.0000000000E+00
                       1.9800000000E+00  0.0000000000E+00  2.0000000000E+00
                       1.9800000000E+00  1.9800000000E+00  0.0000000000E+00
            xcart      0.0000000000E+00  0.0000000000E+00  0.0000000000E+00
                       3.7416577431E+00  3.7416577431E+00  3.8172467884E+00
                       0.0000000000E+00  3.7416577431E+00  3.7794522658E+00
                       3.7416577431E+00  0.0000000000E+00  3.7794522658E+00
                       3.7416577431E+00  3.7416577431E+00  0.0000000000E+00
             xred      0.0000000000E+00  0.0000000000E+00  0.0000000000E+00
                       5.0000000000E-01  5.0000000000E-01  5.0500000000E-01
                       0.0000000000E+00  5.0000000000E-01  5.0000000000E-01
                       5.0000000000E-01  0.0000000000E+00  5.0000000000E-01
                       5.0000000000E-01  5.0000000000E-01  0.0000000000E+00
            znucl       56.00000   22.00000    8.00000

================================================================================

 chkinp: Checking input parameters for consistency, jdtset=   1.

================================================================================
== DATASET  1 ==================================================================
-   nproc =   24

 Exchange-correlation functional for the present dataset will be:
  LDA: new Teter (4/93) with spin-polarized option - ixc=1
 Citation for XC functional:
  S. Goedecker, M. Teter, J. Huetter, PRB 54, 1703 (1996)
 
 Real(R)+Recip(G) space primitive vectors, cartesian coordinates (Bohr,Bohr^-1):
 R(1)=  7.4833155  0.0000000  0.0000000  G(1)=  0.1336306  0.0000000  0.0000000
 R(2)=  0.0000000  7.4833155  0.0000000  G(2)=  0.0000000  0.1336306  0.0000000
 R(3)=  0.0000000  0.0000000  7.5589045  G(3)=  0.0000000  0.0000000  0.1322943
 Unit cell volume ucvol=  4.2329873E+02 bohr^3
 Angles (23,13,12)=  9.00000000E+01  9.00000000E+01  9.00000000E+01 degrees

 getcut: wavevector=  0.0000  0.0000  0.0000  ngfft=  32  32  32
         ecut(hartree)=     22.000   => boxcut(ratio)=   2.00500

--- Pseudopotential description ------------------------------------------------
- pspini: atom type   1  psp file is ../psps/56ba_LDA_TM.pspnc
- pspatm: opening atomic psp file    ../psps/56ba_LDA_TM.pspnc
-  Troullier-Martins psp for element  Ba        Thu Oct 27 17:45:27 EDT 1994
- 56.00000   8.00000    940714                znucl, zion, pspdat
    1    1    2    0      2001   0.00000      pspcod,pspxc,lmax,lloc,mmax,r2well
    0   3.136   6.531    0   3.3606525        l,e99.0,e99.9,nproj,rcpsp
   0.00000000   0.00000000   0.00000000   0.00000000     rms, ekb1, ekb2, epsatm
    1   3.684   8.871    1   2.4896211        l,e99.0,e99.9,nproj,rcpsp
   0.00000000   0.00000000   0.00000000   0.00000000     rms, ekb1, ekb2, epsatm
    2   4.356   5.823    1   2.7860712        l,e99.0,e99.9,nproj,rcpsp
   0.00000000   0.00000000   0.00000000   0.00000000     rms, ekb1, ekb2, epsatm
    2.29351246205421    0.45434617287240    4.78340519141650   rchrg,fchrg,qchrg
 pspatm: epsatm=  174.17887550
         --- l  ekb(1:nproj) -->
             1   -2.337834
             2   -1.872976
 pspatm: atomic psp has been read  and splines computed

- pspini: atom type   2  psp file is ../psps/22ti_LDA_TM.pspnc
- pspatm: opening atomic psp file    ../psps/22ti_LDA_TM.pspnc
-  Troullier-Martins psp for element  Ti        Thu Oct 27 17:33:40 EDT 1994
- 22.00000   4.00000    940714                znucl, zion, pspdat
    1    1    2    0      2001   0.00000      pspcod,pspxc,lmax,lloc,mmax,r2well
    0   5.166   8.509    0   2.4203472        l,e99.0,e99.9,nproj,rcpsp
   0.00000000   0.00000000   0.00000000   0.00000000     rms, ekb1, ekb2, epsatm
    1   2.285   3.944    1   2.9934301        l,e99.0,e99.9,nproj,rcpsp
   0.00000000   0.00000000   0.00000000   0.00000000     rms, ekb1, ekb2, epsatm
    2  20.947  27.069    1   1.9326638        l,e99.0,e99.9,nproj,rcpsp
   0.00000000   0.00000000   0.00000000   0.00000000     rms, ekb1, ekb2, epsatm
    2.82741504495369    0.09256629068341    1.82586447305099   rchrg,fchrg,qchrg
 pspatm: epsatm=   66.67453488
         --- l  ekb(1:nproj) -->
             1    0.915537
             2   -8.015692
 pspatm: atomic psp has been read  and splines computed

- pspini: atom type   3  psp file is ../psps/8o_LDA_TM.pspnc
- pspatm: opening atomic psp file    ../psps/8o_LDA_TM.pspnc
-  Troullier-Martins psp for element  O         Thu Oct 27 17:29:57 EDT 1994
-  8.00000   6.00000    940714                znucl, zion, pspdat
    1    1    1    1      2001   0.00000      pspcod,pspxc,lmax,lloc,mmax,r2well
    0   5.480  16.893    1   1.4482335        l,e99.0,e99.9,nproj,rcpsp
   0.00000000   0.00000000   0.00000000   0.00000000     rms, ekb1, ekb2, epsatm
    1  20.911  28.075    0   1.4482335        l,e99.0,e99.9,nproj,rcpsp
   0.00000000   0.00000000   0.00000000   0.00000000     rms, ekb1, ekb2, epsatm
    0.56990156784787    3.95561236318184    0.63894027514378   rchrg,fchrg,qchrg
 pspatm: epsatm=    1.57752239
         --- l  ekb(1:nproj) -->
             0    5.670783
 pspatm: atomic psp has been read  and splines computed

   7.36757933E+03                                ecore*ucvol(ha*bohr**3)
--------------------------------------------------------------------------------

P newkpt: treating     16 bands with npw=     489 for ikpt=   1 by node    0
P newkpt: treating     16 bands with npw=     494 for ikpt=   2 by node    1
P newkpt: treating     16 bands with npw=     503 for ikpt=   3 by node    2
P newkpt: treating     16 bands with npw=     493 for ikpt=   4 by node    3
P newkpt: treating     16 bands with npw=     498 for ikpt=   5 by node    4
P newkpt: treating     16 bands with npw=     507 for ikpt=   6 by node    5
 
_setup2: Arith. and geom. avg. npw (full set) are     497.000     496.970

================================================================================

=== [ionmov= 2] Broyden-Fletcher-Goldfard-Shanno method (forces)            
================================================================================

--- Iteration: ( 1/15) Internal Cycle: (1/1)
--------------------------------------------------------------------------------

---SELF-CONSISTENT-FIELD CONVERGENCE--------------------------------------------

     iter   Etot(hartree)      deltaE(h)  residm     vres2
 ETOT  1  -71.363771547162    -7.136E+01 1.765E-02 1.453E+02
 ETOT  2  -71.177513256072     1.863E-01 2.345E-03 4.951E+02
 ETOT  3  -70.860729544329     3.168E-01 1.324E-03 8.206E+02
 ETOT  4  -68.321465329569     2.539E+00 5.533E-03 3.313E+03
 ETOT  5  -68.353633896757    -3.217E-02 3.336E-02 4.392E+03
 ETOT  6  -64.746636360449     3.607E+00 4.997E-02 6.753E+03
 ETOT  7  -66.216213753834    -1.470E+00 4.388E-02 7.414E+03
 ETOT  8  -61.692048278256     4.524E+00 6.160E-02 9.841E+03
 ETOT  9  -66.118925067385    -4.427E+00 1.095E-01 8.300E+03
 ETOT 10  -63.950264620521     2.169E+00 5.951E-02 6.795E+03
 ETOT 11  -67.106157954795    -3.156E+00 6.701E-02 6.336E+03
 ETOT 12  -64.541062872815     2.565E+00 6.946E-02 6.055E+03
 ETOT 13  -67.061553163825    -2.520E+00 7.171E-02 6.302E+03
 ETOT 14  -64.545326844632     2.516E+00 5.587E-02 6.335E+03
 ETOT 15  -67.022653820616    -2.477E+00 8.850E-02 6.361E+03
 ETOT 16  -63.732520801899     3.290E+00 7.169E-02 7.100E+03
 ETOT 17  -66.902884834303    -3.170E+00 8.431E-02 6.782E+03
 ETOT 18  -64.294802298556     2.608E+00 6.763E-02 6.383E+03
 ETOT 19  -67.098148400050    -2.803E+00 7.875E-02 6.350E+03
 ETOT 20  -63.808825442583     3.289E+00 7.006E-02 6.814E+03
 ETOT 21  -67.049109534144    -3.240E+00 6.232E-02 6.746E+03
 ETOT 22  -64.253624220290     2.795E+00 6.048E-02 6.364E+03
 ETOT 23  -67.148981484550    -2.895E+00 9.760E-02 6.272E+03
 ETOT 24  -64.608972384362     2.540E+00 7.013E-02 5.968E+03
 ETOT 25  -67.123316604846    -2.514E+00 7.358E-02 6.276E+03
 ETOT 26  -63.496983449381     3.626E+00 6.625E-02 7.258E+03
 ETOT 27  -67.249726403518    -3.753E+00 1.071E-01 6.302E+03
 ETOT 28  -65.295320366876     1.954E+00 6.094E-02 5.110E+03
 ETOT 29  -67.358706774968    -2.063E+00 6.514E-02 5.911E+03
 ETOT 30  -63.359875152881     3.999E+00 5.829E-02 7.342E+03
 ETOT 31  -66.861588431386    -3.502E+00 8.274E-02 6.896E+03
 ETOT 32  -64.341808517354     2.520E+00 6.422E-02 6.266E+03
 ETOT 33  -67.130041162270    -2.788E+00 6.384E-02 6.220E+03
 ETOT 34  -64.494866993930     2.635E+00 5.559E-02 6.128E+03
 ETOT 35  -67.133089973455    -2.638E+00 5.968E-02 6.369E+03
 ETOT 36  -63.503795666143     3.629E+00 5.995E-02 7.169E+03
 ETOT 37  -67.093040386732    -3.589E+00 9.051E-02 6.597E+03
 ETOT 38  -64.597851605993     2.495E+00 6.653E-02 5.905E+03
 ETOT 39  -67.165168681710    -2.567E+00 6.686E-02 6.211E+03
 ETOT 40  -64.116037340945     3.049E+00 6.354E-02 6.665E+03
 ETOT 41  -67.098956822423    -2.983E+00 7.096E-02 6.363E+03
 ETOT 42  -64.716524130364     2.382E+00 6.373E-02 5.881E+03
 ETOT 43  -67.104188766747    -2.388E+00 5.617E-02 6.296E+03
 ETOT 44  -63.586889803831     3.517E+00 7.648E-02 7.191E+03
 ETOT 45  -66.752286912573    -3.165E+00 7.249E-02 7.045E+03
 ETOT 46  -63.693179976500     3.059E+00 6.614E-02 7.078E+03
 ETOT 47  -66.858193701213    -3.165E+00 1.076E-01 6.675E+03
 ETOT 48  -64.319097733224     2.539E+00 8.386E-02 6.236E+03
 ETOT 49  -67.144349257224    -2.825E+00 9.399E-02 6.252E+03
 ETOT 50  -64.345655794481     2.799E+00 6.010E-02 6.260E+03
 ETOT 51  -67.029907776888    -2.684E+00 6.183E-02 6.462E+03
 ETOT 52  -64.067554936073     2.962E+00 5.869E-02 6.598E+03
 ETOT 53  -66.977279851604    -2.910E+00 7.772E-02 6.580E+03
 ETOT 54  -63.729640529621     3.248E+00 6.968E-02 6.917E+03
 ETOT 55  -66.870349304174    -3.141E+00 9.732E-02 6.828E+03
 ETOT 56  -64.353467544677     2.517E+00 7.085E-02 6.414E+03
 ETOT 57  -67.168688402355    -2.815E+00 8.266E-02 6.305E+03
 ETOT 58  -64.202505138465     2.966E+00 6.952E-02 6.441E+03
 ETOT 59  -66.966692460399    -2.764E+00 8.916E-02 6.654E+03
 ETOT 60  -64.090588322159     2.876E+00 5.850E-02 6.748E+03
 ETOT 61  -67.166398550071    -3.076E+00 1.235E-01 6.206E+03
 ETOT 62  -64.358005646399     2.808E+00 5.869E-02 6.180E+03
 ETOT 63  -67.052332171576    -2.694E+00 6.785E-02 6.551E+03
 ETOT 64  -64.395344799841     2.657E+00 5.992E-02 6.310E+03
 ETOT 65  -67.053162072373    -2.658E+00 6.181E-02 6.340E+03
 ETOT 66  -63.480909428287     3.572E+00 6.705E-02 7.138E+03
 ETOT 67  -66.911243266699    -3.430E+00 5.994E-02 6.935E+03
 ETOT 68  -64.056600090531     2.855E+00 7.680E-02 6.723E+03
 ETOT 69  -67.342016717165    -3.285E+00 8.881E-02 6.022E+03
 ETOT 70  -65.255447266483     2.087E+00 6.427E-02 5.247E+03
 ETOT 71  -67.227757853255    -1.972E+00 4.843E-02 6.096E+03
 ETOT 72  -63.499573548080     3.728E+00 6.465E-02 7.449E+03
 ETOT 73  -66.747610565064    -3.248E+00 7.373E-02 6.984E+03
 ETOT 74  -64.051338361335     2.696E+00 5.958E-02 6.685E+03
 ETOT 75  -66.874211060046    -2.823E+00 8.057E-02 6.655E+03
 ETOT 76  -63.441011326636     3.433E+00 6.910E-02 7.344E+03
 ETOT 77  -67.012760133981    -3.572E+00 6.124E-02 6.747E+03
 ETOT 78  -64.913653458781     2.099E+00 5.765E-02 5.600E+03
 ETOT 79  -67.210608896380    -2.297E+00 7.898E-02 6.048E+03
 ETOT 80  -63.563761848750     3.647E+00 6.690E-02 7.202E+03
 ETOT 81  -66.975890870663    -3.412E+00 6.774E-02 6.773E+03
 ETOT 82  -64.083100712794     2.893E+00 6.538E-02 6.517E+03
 ETOT 83  -67.253437984232    -3.170E+00 1.115E-01 6.267E+03
 ETOT 84  -64.261186923467     2.992E+00 6.128E-02 6.131E+03
 ETOT 85  -67.095046523943    -2.834E+00 5.404E-02 6.523E+03
 ETOT 86  -64.148311041735     2.947E+00 5.981E-02 6.507E+03
 ETOT 87  -66.993901406535    -2.846E+00 6.573E-02 6.582E+03
 ETOT 88  -63.776280124304     3.218E+00 6.958E-02 6.980E+03
 ETOT 89  -67.028485378842    -3.252E+00 5.602E-02 6.586E+03
 ETOT 90  -64.389886566418     2.639E+00 6.311E-02 6.103E+03
 ETOT 91  -66.935283628437    -2.545E+00 5.750E-02 6.608E+03
 ETOT 92  -63.422940884744     3.512E+00 7.443E-02 7.420E+03
 ETOT 93  -66.691819147348    -3.269E+00 7.397E-02 7.092E+03
 ETOT 94  -63.956387258250     2.735E+00 8.300E-02 6.680E+03
 ETOT 95  -66.904280838817    -2.948E+00 6.238E-02 6.763E+03
 ETOT 96  -64.095722305294     2.809E+00 7.362E-02 6.646E+03
 ETOT 97  -66.976175605668    -2.880E+00 8.929E-02 6.477E+03
 ETOT 98  -63.971316890631     3.005E+00 6.929E-02 6.776E+03
 ETOT 99  -66.986121915667    -3.015E+00 7.695E-02 6.703E+03
 ETOT  100  -64.003578841182     2.983E+00 7.120E-02 6.626E+03
 ETOT  101  -67.021101407995    -3.018E+00 6.832E-02 6.518E+03
 ETOT  102  -63.848974168051     3.172E+00 6.905E-02 6.774E+03
 ETOT  103  -67.100773135457    -3.252E+00 5.901E-02 6.570E+03
 ETOT  104  -64.393461092536     2.707E+00 8.245E-02 6.089E+03
 ETOT  105  -67.357854890765    -2.964E+00 1.042E-01 5.926E+03
 ETOT  106  -64.510504341666     2.847E+00 6.162E-02 5.988E+03
 ETOT  107  -66.994989465112    -2.484E+00 6.679E-02 6.554E+03
 ETOT  108  -63.807417757861     3.188E+00 6.537E-02 6.920E+03
 ETOT  109  -67.013372479912    -3.206E+00 1.085E-01 6.581E+03
 ETOT  110  -64.371520250262     2.642E+00 5.920E-02 6.248E+03
 ETOT  111  -67.399141574949    -3.028E+00 5.355E-02 5.993E+03
 ETOT  112  -64.235863989619     3.163E+00 7.004E-02 6.207E+03
 ETOT  113  -67.018939077025    -2.783E+00 6.755E-02 6.552E+03
 ETOT  114  -64.217604099996     2.801E+00 6.241E-02 6.476E+03
 ETOT  115  -67.208427788560    -2.991E+00 6.371E-02 6.250E+03
 ETOT  116  -64.343831200558     2.865E+00 7.228E-02 6.276E+03
 ETOT  117  -67.096910774889    -2.753E+00 7.398E-02 6.311E+03
 ETOT  118  -64.432915009741     2.664E+00 6.547E-02 6.244E+03
 ETOT  119  -67.220349261057    -2.787E+00 5.473E-02 6.228E+03
 ETOT  120  -64.077193660246     3.143E+00 6.454E-02 6.520E+03
 ETOT  121  -66.927330062429    -2.850E+00 6.761E-02 6.786E+03
 ETOT  122  -63.715726189903     3.212E+00 7.734E-02 7.170E+03
 ETOT  123  -66.896418172662    -3.181E+00 6.100E-02 6.758E+03
 ETOT  124  -63.769909751685     3.127E+00 6.398E-02 6.895E+03
 ETOT  125  -67.125044047884    -3.355E+00 7.529E-02 6.453E+03
 ETOT  126  -65.090025944411     2.035E+00 6.071E-02 5.379E+03
 ETOT  127  -67.205484381879    -2.115E+00 6.979E-02 6.038E+03
 ETOT  128  -63.370076762519     3.835E+00 7.289E-02 7.376E+03
 ETOT  129  -66.882588918628    -3.513E+00 6.769E-02 6.971E+03
 ETOT  130  -64.092019049273     2.791E+00 7.273E-02 6.593E+03
 ETOT  131  -67.115690122576    -3.024E+00 1.028E-01 6.329E+03
 ETOT  132  -64.318017700313     2.798E+00 6.265E-02 6.192E+03
 ETOT  133  -66.992668297737    -2.675E+00 5.910E-02 6.545E+03
 ETOT  134  -63.623402670256     3.369E+00 6.380E-02 7.301E+03
 ETOT  135  -66.971532634212    -3.348E+00 8.683E-02 6.699E+03
 ETOT  136  -64.140126033390     2.831E+00 6.471E-02 6.441E+03
 ETOT  137  -67.109712240719    -2.970E+00 5.937E-02 6.442E+03
 ETOT  138  -64.585261442743     2.524E+00 6.767E-02 6.029E+03
 ETOT  139  -67.050519078734    -2.465E+00 5.659E-02 6.360E+03
 ETOT  140  -63.618678590056     3.432E+00 7.386E-02 7.155E+03
 ETOT  141  -66.820398481541    -3.202E+00 6.732E-02 6.976E+03
 ETOT  142  -63.934222427110     2.886E+00 6.421E-02 6.863E+03
 ETOT  143  -66.986127401294    -3.052E+00 7.831E-02 6.518E+03
 ETOT  144  -64.594158962506     2.392E+00 7.194E-02 6.017E+03
 ETOT  145  -67.089557435755    -2.495E+00 6.801E-02 6.360E+03
 ETOT  146  -63.878739532357     3.211E+00 6.116E-02 6.830E+03
 ETOT  147  -66.962721873862    -3.084E+00 6.981E-02 6.702E+03
 ETOT  148  -63.716709154389     3.246E+00 6.668E-02 7.095E+03
 ETOT  149  -67.115979317469    -3.399E+00 6.802E-02 6.461E+03
 ETOT  150  -64.353319520214     2.763E+00 6.561E-02 6.108E+03
 ETOT  151  -67.175892152611    -2.823E+00 7.821E-02 6.391E+03
 ETOT  152  -64.167976052099     3.008E+00 6.244E-02 6.609E+03
 ETOT  153  -67.056896241013    -2.889E+00 7.708E-02 6.382E+03
 ETOT  154  -64.642442450675     2.414E+00 8.910E-02 5.865E+03
 ETOT  155  -66.951770346912    -2.309E+00 5.682E-02 6.484E+03
 ETOT  156  -63.360961492768     3.591E+00 7.720E-02 7.544E+03
 ETOT  157  -66.709798374314    -3.349E+00 6.104E-02 7.052E+03
 ETOT  158  -63.948042074355     2.762E+00 6.906E-02 6.688E+03
 ETOT  159  -67.105843750617    -3.158E+00 7.613E-02 6.391E+03
 ETOT  160  -64.426106346031     2.680E+00 6.519E-02 6.150E+03
 ETOT  161  -66.983330497301    -2.557E+00 7.522E-02 6.502E+03
 ETOT  162  -63.906698489487     3.077E+00 5.805E-02 6.918E+03
 ETOT  163  -66.871456105426    -2.965E+00 6.809E-02 6.711E+03
 ETOT  164  -64.242752055725     2.629E+00 6.683E-02 6.552E+03
 ETOT  165  -67.046575921982    -2.804E+00 5.822E-02 6.515E+03
 ETOT  166  -63.114327247424     3.932E+00 6.681E-02 7.527E+03
 ETOT  167  -66.836367106269    -3.722E+00 1.060E-01 7.073E+03
 ETOT  168  -64.420866267413     2.416E+00 6.572E-02 6.080E+03
 ETOT  169  -67.190077320077    -2.769E+00 9.247E-02 6.266E+03
 ETOT  170  -64.360449907324     2.830E+00 6.169E-02 6.267E+03
 ETOT  171  -67.088519832670    -2.728E+00 7.644E-02 6.420E+03
 ETOT  172  -63.459141081329     3.629E+00 6.287E-02 7.188E+03
 ETOT  173  -67.177018448788    -3.718E+00 1.103E-01 6.495E+03
 ETOT  174  -65.257996856371     1.919E+00 6.533E-02 5.149E+03
 ETOT  175  -67.361669239165    -2.104E+00 8.376E-02 5.794E+03
 ETOT  176  -63.969926374031     3.392E+00 6.518E-02 6.758E+03
 ETOT  177  -66.927804200384    -2.958E+00 7.749E-02 6.763E+03
 ETOT  178  -64.034539536597     2.893E+00 7.165E-02 6.727E+03
 ETOT  179  -67.091948092942    -3.057E+00 8.950E-02 6.357E+03
 ETOT  180  -64.561344617455     2.531E+00 6.741E-02 6.010E+03
 ETOT  181  -67.127997211888    -2.567E+00 6.483E-02 6.329E+03
 ETOT  182  -63.518749123315     3.609E+00 6.768E-02 7.122E+03
 ETOT  183  -66.986908072756    -3.468E+00 8.608E-02 6.784E+03
 ETOT  184  -64.885828789487     2.101E+00 7.240E-02 5.786E+03
 ETOT  185  -67.345297819581    -2.459E+00 6.659E-02 5.816E+03
 ETOT  186  -63.901186791345     3.444E+00 6.619E-02 6.693E+03
 ETOT  187  -67.009917512000    -3.109E+00 7.986E-02 6.739E+03
 ETOT  188  -64.461589304441     2.548E+00 6.005E-02 6.336E+03
 ETOT  189  -67.366824531710    -2.905E+00 6.752E-02 5.834E+03
 ETOT  190  -64.471668303435     2.895E+00 6.326E-02 6.057E+03
 ETOT  191  -66.971735088579    -2.500E+00 5.240E-02 6.584E+03
 ETOT  192  -63.624600673998     3.347E+00 6.477E-02 7.213E+03
 ETOT  193  -66.884428114171    -3.260E+00 6.627E-02 6.856E+03
 ETOT  194  -64.030625374655     2.854E+00 8.375E-02 6.628E+03
 ETOT  195  -67.004702269221    -2.974E+00 7.049E-02 6.499E+03
 ETOT  196  -64.368559774020     2.636E+00 6.913E-02 6.355E+03
 ETOT  197  -67.131524780700    -2.763E+00 6.021E-02 6.284E+03
 ETOT  198  -64.541329822865     2.590E+00 6.715E-02 6.063E+03
 ETOT  199  -66.798964209040    -2.258E+00 5.650E-02 6.732E+03
 ETOT  200  -62.874246371106     3.925E+00 5.917E-02 8.235E+03

 Cartesian components of stress tensor (hartree/bohr^3)
  sigma(1 1)=  7.06977243E-03  sigma(3 2)=  0.00000000E+00
  sigma(2 2)=  7.06977243E-03  sigma(3 1)=  0.00000000E+00
  sigma(3 3)=  6.31082983E-03  sigma(2 1)=  0.00000000E+00
 

 scprqt:  WARNING -
  nstep=  200 was not enough SCF cycles to converge;
  maximum energy difference=  3.925E+00 exceeds toldfe=  1.000E-09


---OUTPUT-----------------------------------------------------------------------

 Cartesian coordinates (xcart) [bohr]
  0.00000000000000E+00  0.00000000000000E+00  0.00000000000000E+00
  3.74165774311357E+00  3.74165774311357E+00  3.81724678842900E+00
  0.00000000000000E+00  3.74165774311357E+00  3.77945226577129E+00
  3.74165774311357E+00  0.00000000000000E+00  3.77945226577129E+00
  3.74165774311357E+00  3.74165774311357E+00  0.00000000000000E+00
 Reduced coordinates (xred)
  0.00000000000000E+00  0.00000000000000E+00  0.00000000000000E+00
  5.00000000000000E-01  5.00000000000000E-01  5.05000000000000E-01
  0.00000000000000E+00  5.00000000000000E-01  5.00000000000000E-01
  5.00000000000000E-01  0.00000000000000E+00  5.00000000000000E-01
  5.00000000000000E-01  5.00000000000000E-01  0.00000000000000E+00
 Cartesian forces (fcart) [Ha/bohr]; max,rms= 4.39666E-02 1.54429E-02 (free atoms)
  0.00000000000000E+00  0.00000000000000E+00 -7.80515822567850E-03
  0.00000000000000E+00  0.00000000000000E+00 -4.39666446316836E-02
  0.00000000000000E+00  0.00000000000000E+00  1.48317820578723E-02
  0.00000000000000E+00  0.00000000000000E+00  1.48317820578723E-02
  0.00000000000000E+00  0.00000000000000E+00  2.21082387416175E-02
 Reduced forces (fred)
  0.00000000000000E+00  0.00000000000000E+00  8.70989866737401E-02
  0.00000000000000E+00  0.00000000000000E+00  3.60440210135407E-01
  0.00000000000000E+00  0.00000000000000E+00 -8.40114838158506E-02
  0.00000000000000E+00  0.00000000000000E+00 -8.40114838158506E-02
  0.00000000000000E+00  0.00000000000000E+00 -1.39013525216185E-01
 Total energy (etotal) [Ha]= -6.28742463711061E+01

--- Iteration: ( 2/15) Internal Cycle: (1/1)
--------------------------------------------------------------------------------

---SELF-CONSISTENT-FIELD CONVERGENCE--------------------------------------------

     iter   Etot(hartree)      deltaE(h)  residm     vres2
 ETOT  1  -59.346321116421    -5.935E+01 1.975E-02 2.426E+04
 ETOT  2  -56.672554616300     2.674E+00 7.166E-03 1.822E+04
 ETOT  3  -66.746630785194    -1.007E+01 9.582E-02 1.067E+04
 ETOT  4  -65.765410653287     9.812E-01 7.428E-02 6.828E+03
 ETOT  5  -67.948990913284    -2.184E+00 6.164E-02 4.797E+03
 ETOT  6  -63.634508504648     4.314E+00 5.012E-02 7.206E+03
 ETOT  7  -66.860500847221    -3.226E+00 5.661E-02 7.145E+03
 ETOT  8  -63.943446665153     2.917E+00 6.699E-02 6.985E+03
 ETOT  9  -67.008341737747    -3.065E+00 5.896E-02 6.529E+03
 ETOT 10  -63.825083946134     3.183E+00 7.640E-02 6.781E+03
 ETOT 11  -66.905390264344    -3.080E+00 7.790E-02 6.769E+03
 ETOT 12  -64.286489946823     2.619E+00 7.673E-02 6.308E+03
 ETOT 13  -67.145686506449    -2.859E+00 5.343E-02 6.283E+03
 ETOT 14  -63.890450362658     3.255E+00 7.212E-02 6.653E+03
 ETOT 15  -66.915232329432    -3.025E+00 7.151E-02 6.775E+03
 ETOT 16  -64.207788434754     2.707E+00 7.847E-02 6.588E+03
 ETOT 17  -67.105050499360    -2.897E+00 9.081E-02 6.351E+03
 ETOT 18  -63.955496592413     3.150E+00 6.452E-02 6.684E+03
 ETOT 19  -67.001218895397    -3.046E+00 6.126E-02 6.701E+03
 ETOT 20  -64.144587197624     2.857E+00 6.747E-02 6.565E+03
 ETOT 21  -67.200567502726    -3.056E+00 1.011E-01 6.243E+03
 ETOT 22  -64.334749403701     2.866E+00 6.228E-02 6.234E+03
 ETOT 23  -67.133258097452    -2.799E+00 8.292E-02 6.404E+03
 ETOT 24  -64.375285580323     2.758E+00 6.457E-02 6.307E+03
 ETOT 25  -67.046024308082    -2.671E+00 5.525E-02 6.443E+03
 ETOT 26  -63.760272649041     3.286E+00 7.118E-02 6.927E+03
 ETOT 27  -66.817573574618    -3.057E+00 7.611E-02 6.868E+03
 ETOT 28  -64.050953772381     2.767E+00 6.403E-02 6.669E+03
 ETOT 29  -67.009619711819    -2.959E+00 8.354E-02 6.522E+03
 ETOT 30  -64.131338924870     2.878E+00 6.225E-02 6.517E+03
 ETOT 31  -66.899457678752    -2.768E+00 5.814E-02 6.674E+03
 ETOT 32  -63.516282867313     3.383E+00 8.019E-02 7.275E+03
 ETOT 33  -66.774630614734    -3.258E+00 8.568E-02 7.031E+03
 ETOT 34  -64.221322124009     2.553E+00 7.372E-02 6.372E+03
 ETOT 35  -67.128608946566    -2.907E+00 9.298E-02 6.286E+03
 ETOT 36  -64.590005869737     2.539E+00 6.299E-02 6.082E+03
 ETOT 37  -66.984273757612    -2.394E+00 1.009E-01 6.502E+03
 ETOT 38  -63.606260127216     3.378E+00 6.206E-02 7.295E+03
 ETOT 39  -66.836061219850    -3.230E+00 6.447E-02 6.890E+03
 ETOT 40  -64.119510026369     2.717E+00 7.566E-02 6.579E+03
 ETOT 41  -66.962020081648    -2.843E+00 7.248E-02 6.627E+03
 ETOT 42  -63.683389162598     3.279E+00 6.386E-02 7.136E+03
 ETOT 43  -66.936308377205    -3.253E+00 6.179E-02 6.734E+03
 ETOT 44  -64.378506033636     2.558E+00 6.328E-02 6.234E+03
 ETOT 45  -67.216611700066    -2.838E+00 5.950E-02 6.219E+03
 ETOT 46  -64.095708118132     3.121E+00 7.289E-02 6.477E+03
 ETOT 47  -67.083087781240    -2.987E+00 5.535E-02 6.527E+03
 ETOT 48  -64.116282733885     2.967E+00 6.931E-02 6.484E+03
 ETOT 49  -67.113177548722    -2.997E+00 6.715E-02 6.450E+03
 ETOT 50  -63.980261963472     3.133E+00 7.069E-02 6.554E+03
 ETOT 51  -66.951970974742    -2.972E+00 7.071E-02 6.738E+03
 ETOT 52  -64.140337824718     2.812E+00 7.063E-02 6.661E+03
 ETOT 53  -67.094385556377    -2.954E+00 5.950E-02 6.370E+03
 ETOT 54  -64.009619956371     3.085E+00 6.704E-02 6.475E+03
 ETOT 55  -67.081174840678    -3.072E+00 1.143E-01 6.517E+03
 ETOT 56  -64.414450241276     2.667E+00 6.450E-02 6.239E+03
 ETOT 57  -67.023646369328    -2.609E+00 7.050E-02 6.456E+03
 ETOT 58  -63.444893301511     3.579E+00 6.063E-02 7.298E+03
 ETOT 59  -66.898451967576    -3.454E+00 9.879E-02 6.880E+03
 ETOT 60  -64.287648969541     2.611E+00 7.095E-02 6.339E+03
 ETOT 61  -67.234794925488    -2.947E+00 6.574E-02 6.222E+03
 ETOT 62  -64.529960107548     2.705E+00 6.416E-02 5.985E+03
 ETOT 63  -67.155826472681    -2.626E+00 1.093E-01 6.206E+03
 ETOT 64  -64.320966396580     2.835E+00 7.201E-02 6.353E+03
 ETOT 65  -67.019978168911    -2.699E+00 9.048E-02 6.463E+03
 ETOT 66  -64.064861631331     2.955E+00 7.261E-02 6.580E+03
 ETOT 67  -67.170364469631    -3.106E+00 7.531E-02 6.395E+03
 ETOT 68  -64.801085654625     2.369E+00 7.435E-02 5.826E+03
 ETOT 69  -67.109892912959    -2.309E+00 8.386E-02 6.139E+03
 ETOT 70  -63.226157969243     3.884E+00 6.142E-02 7.502E+03
 ETOT 71  -66.889749443739    -3.664E+00 1.161E-01 6.917E+03
 ETOT 72  -64.875500853260     2.014E+00 6.389E-02 5.707E+03
 ETOT 73  -67.232213423307    -2.357E+00 5.751E-02 6.052E+03
 ETOT 74  -63.630906828170     3.601E+00 8.456E-02 7.019E+03
 ETOT 75  -66.778387278826    -3.147E+00 1.028E-01 7.035E+03
 ETOT 76  -64.010254374892     2.768E+00 6.100E-02 6.768E+03
 ETOT 77  -67.022610163962    -3.012E+00 7.293E-02 6.485E+03
 ETOT 78  -64.160652046454     2.862E+00 5.324E-02 6.546E+03
 ETOT 79  -67.089654074016    -2.929E+00 7.916E-02 6.508E+03
 ETOT 80  -64.151916253858     2.938E+00 6.969E-02 6.527E+03
 ETOT 81  -66.944615258085    -2.793E+00 6.230E-02 6.557E+03
 ETOT 82  -64.363031842508     2.582E+00 6.999E-02 6.416E+03
 ETOT 83  -66.945116664358    -2.582E+00 6.093E-02 6.581E+03
 ETOT 84  -63.831567139444     3.114E+00 6.551E-02 7.021E+03
 ETOT 85  -66.989815842542    -3.158E+00 6.088E-02 6.611E+03
 ETOT 86  -63.726473925513     3.263E+00 6.572E-02 6.855E+03
 ETOT 87  -67.026257521591    -3.300E+00 8.668E-02 6.555E+03
 ETOT 88  -64.807401226192     2.219E+00 7.016E-02 5.926E+03
 ETOT 89  -67.234129865601    -2.427E+00 7.483E-02 5.855E+03
 ETOT 90  -64.237490469210     2.997E+00 5.847E-02 6.476E+03
 ETOT 91  -66.928094281342    -2.691E+00 5.394E-02 6.649E+03
 ETOT 92  -63.945755077414     2.982E+00 6.857E-02 7.075E+03
 ETOT 93  -67.095179120581    -3.149E+00 1.087E-01 6.281E+03
 ETOT 94  -64.175100946176     2.920E+00 8.264E-02 6.321E+03
 ETOT 95  -66.993217133999    -2.818E+00 6.288E-02 6.729E+03
 ETOT 96  -64.128761230058     2.864E+00 6.418E-02 6.799E+03
 ETOT 97  -67.081965956912    -2.953E+00 6.433E-02 6.394E+03
 ETOT 98  -63.463073766932     3.619E+00 8.197E-02 7.073E+03
 ETOT 99  -66.890511860390    -3.427E+00 8.538E-02 7.037E+03
 ETOT  100  -64.462147649820     2.428E+00 6.812E-02 6.231E+03
 ETOT  101  -67.148290639053    -2.686E+00 8.628E-02 6.255E+03
 ETOT  102  -64.166968864673     2.981E+00 6.721E-02 6.504E+03
 ETOT  103  -67.010848273021    -2.844E+00 5.246E-02 6.540E+03
 ETOT  104  -63.854507475835     3.156E+00 7.925E-02 6.816E+03
 ETOT  105  -67.022780072715    -3.168E+00 7.536E-02 6.465E+03
 ETOT  106  -64.622760288743     2.400E+00 7.243E-02 5.981E+03
 ETOT  107  -67.100272298321    -2.478E+00 6.006E-02 6.199E+03
 ETOT  108  -63.747075177366     3.353E+00 7.590E-02 7.024E+03
 ETOT  109  -67.066930089024    -3.320E+00 8.941E-02 6.608E+03
 ETOT  110  -64.903997821796     2.163E+00 6.657E-02 5.722E+03
 ETOT  111  -67.269636958239    -2.366E+00 6.814E-02 6.003E+03
 ETOT  112  -63.590787939834     3.679E+00 6.568E-02 7.115E+03
 ETOT  113  -66.766225885649    -3.175E+00 8.832E-02 7.080E+03
 ETOT  114  -63.645786712341     3.120E+00 6.886E-02 7.205E+03
 ETOT  115  -66.944696879235    -3.299E+00 1.221E-01 6.632E+03
 ETOT  116  -64.610619888798     2.334E+00 7.130E-02 5.841E+03
 ETOT  117  -67.215366684930    -2.605E+00 6.109E-02 6.163E+03
 ETOT  118  -64.292182557513     2.923E+00 6.548E-02 6.401E+03
 ETOT  119  -67.200118466818    -2.908E+00 7.372E-02 6.090E+03
 ETOT  120  -64.669843530974     2.530E+00 6.385E-02 5.977E+03
 ETOT  121  -66.953720343287    -2.284E+00 5.353E-02 6.491E+03
 ETOT  122  -63.784449550932     3.169E+00 6.410E-02 7.255E+03
 ETOT  123  -66.949192130155    -3.165E+00 6.739E-02 6.611E+03
 ETOT  124  -63.598802798198     3.350E+00 6.059E-02 7.050E+03
 ETOT  125  -66.843702020399    -3.245E+00 9.623E-02 7.027E+03
 ETOT  126  -64.392516571656     2.451E+00 6.231E-02 6.417E+03
 ETOT  127  -67.180683891791    -2.788E+00 4.698E-02 6.196E+03
 ETOT  128  -63.573690774479     3.607E+00 6.040E-02 6.990E+03
 ETOT  129  -66.906612556947    -3.333E+00 6.640E-02 6.884E+03
 ETOT  130  -64.673733640105     2.233E+00 6.429E-02 6.099E+03
 ETOT  131  -67.409438062121    -2.736E+00 1.132E-01 5.811E+03
 ETOT  132  -64.643370683797     2.766E+00 5.897E-02 5.887E+03
 ETOT  133  -67.006107937338    -2.363E+00 7.526E-02 6.474E+03
 ETOT  134  -63.631228808026     3.375E+00 6.925E-02 7.222E+03
 ETOT  135  -66.793859806249    -3.163E+00 5.621E-02 6.902E+03
 ETOT  136  -63.580257062588     3.214E+00 7.453E-02 7.102E+03
 ETOT  137  -66.733653496791    -3.153E+00 8.735E-02 7.110E+03
 ETOT  138  -63.804361515613     2.929E+00 6.654E-02 6.901E+03
 ETOT  139  -67.030527239287    -3.226E+00 1.078E-01 6.593E+03
 ETOT  140  -64.233439240388     2.797E+00 6.712E-02 6.373E+03
 ETOT  141  -67.084946555847    -2.852E+00 6.256E-02 6.519E+03
 ETOT  142  -64.108483492159     2.976E+00 6.443E-02 6.616E+03
 ETOT  143  -66.972480609537    -2.864E+00 9.594E-02 6.496E+03
 ETOT  144  -64.221247789074     2.751E+00 5.920E-02 6.483E+03
 ETOT  145  -66.902483880219    -2.681E+00 6.679E-02 6.655E+03
 ETOT  146  -63.503771322129     3.399E+00 6.498E-02 7.283E+03
 ETOT  147  -67.086864886786    -3.583E+00 7.071E-02 6.486E+03
 ETOT  148  -65.019837995442     2.067E+00 6.494E-02 5.403E+03
 ETOT  149  -67.321863100008    -2.302E+00 5.791E-02 5.884E+03
 ETOT  150  -63.814519030360     3.507E+00 6.740E-02 6.899E+03
 ETOT  151  -66.993475153110    -3.179E+00 8.369E-02 6.645E+03
 ETOT  152  -64.419931102629     2.574E+00 6.751E-02 6.240E+03
 ETOT  153  -66.923389020832    -2.503E+00 9.154E-02 6.505E+03
 ETOT  154  -63.829441629551     3.094E+00 7.110E-02 6.928E+03
 ETOT  155  -66.909970405725    -3.081E+00 7.838E-02 6.761E+03
 ETOT  156  -63.876019706406     3.034E+00 6.791E-02 6.888E+03
 ETOT  157  -67.024829156874    -3.149E+00 5.396E-02 6.607E+03
 ETOT  158  -64.204388587602     2.820E+00 6.021E-02 6.389E+03
 ETOT  159  -67.006135678483    -2.802E+00 7.354E-02 6.642E+03
 ETOT  160  -63.463939313775     3.542E+00 7.194E-02 7.202E+03
 ETOT  161  -66.933633780869    -3.470E+00 1.309E-01 6.793E+03
 ETOT  162  -64.556167979139     2.377E+00 5.582E-02 5.970E+03
 ETOT  163  -67.335507660374    -2.779E+00 6.578E-02 5.992E+03
 ETOT  164  -64.462022962560     2.873E+00 6.731E-02 6.057E+03
 ETOT  165  -67.155104703254    -2.693E+00 7.798E-02 6.264E+03
 ETOT  166  -64.077944577553     3.077E+00 7.646E-02 6.503E+03
 ETOT  167  -66.944185255975    -2.866E+00 8.361E-02 6.615E+03
 ETOT  168  -63.725086390889     3.219E+00 7.096E-02 6.964E+03
 ETOT  169  -67.004019105390    -3.279E+00 1.008E-01 6.689E+03
 ETOT  170  -64.023286799823     2.981E+00 6.510E-02 6.524E+03
 ETOT  171  -67.128016827691    -3.105E+00 6.038E-02 6.515E+03
 ETOT  172  -64.863807774565     2.264E+00 6.634E-02 5.735E+03
 ETOT  173  -67.000728397076    -2.137E+00 7.354E-02 6.323E+03
 ETOT  174  -63.196218478778     3.805E+00 8.365E-02 7.655E+03
 ETOT  175  -66.742114700407    -3.546E+00 1.221E-01 7.085E+03
 ETOT  176  -64.265364482907     2.477E+00 6.689E-02 6.346E+03
 ETOT  177  -67.154230538685    -2.889E+00 9.892E-02 6.176E+03
 ETOT  178  -64.564683681879     2.590E+00 6.037E-02 6.011E+03
 ETOT  179  -67.082820924905    -2.518E+00 6.932E-02 6.350E+03
 ETOT  180  -63.750647371958     3.332E+00 7.124E-02 6.884E+03
 ETOT  181  -67.050303672024    -3.300E+00 6.516E-02 6.624E+03
 ETOT  182  -64.363149769503     2.687E+00 6.392E-02 6.296E+03
 ETOT  183  -66.986810086533    -2.624E+00 5.402E-02 6.408E+03
 ETOT  184  -64.054226156536     2.933E+00 7.276E-02 6.666E+03
 ETOT  185  -67.239419955363    -3.185E+00 1.309E-01 6.276E+03
 ETOT  186  -64.797656395634     2.442E+00 6.114E-02 5.753E+03
 ETOT  187  -67.210584411649    -2.413E+00 6.300E-02 6.119E+03
 ETOT  188  -64.028960882541     3.182E+00 7.743E-02 6.631E+03
 ETOT  189  -67.037893326370    -3.009E+00 6.321E-02 6.589E+03
 ETOT  190  -63.785149588688     3.253E+00 6.735E-02 6.900E+03
 ETOT  191  -66.896963098485    -3.112E+00 7.794E-02 6.776E+03
 ETOT  192  -64.323507592275     2.573E+00 7.145E-02 6.355E+03
 ETOT  193  -67.161102930035    -2.838E+00 7.781E-02 6.247E+03
 ETOT  194  -63.915157907906     3.246E+00 7.036E-02 6.666E+03
 ETOT  195  -66.997374149416    -3.082E+00 1.209E-01 6.636E+03
 ETOT  196  -64.878228528541     2.119E+00 7.102E-02 5.809E+03
 ETOT  197  -67.307941755300    -2.430E+00 5.847E-02 5.972E+03
 ETOT  198  -64.028653961046     3.279E+00 6.899E-02 6.636E+03
 ETOT  199  -67.040008851457    -3.011E+00 5.998E-02 6.525E+03
 ETOT  200  -63.959186558430     3.081E+00 6.825E-02 6.726E+03

 Cartesian components of stress tensor (hartree/bohr^3)
  sigma(1 1)=  7.18290179E-03  sigma(3 2)=  0.00000000E+00
  sigma(2 2)=  7.18290179E-03  sigma(3 1)=  0.00000000E+00
  sigma(3 3)=  7.14306092E-03  sigma(2 1)=  0.00000000E+00
 

 scprqt:  WARNING -
  nstep=  200 was not enough SCF cycles to converge;
  maximum energy difference=  3.081E+00 exceeds toldfe=  1.000E-09


---OUTPUT-----------------------------------------------------------------------

 Cartesian coordinates (xcart) [bohr]
  0.00000000000000E+00  0.00000000000000E+00  0.00000000000000E+00
  3.74165774311357E+00  3.74165774311357E+00  3.77328014379732E+00
  0.00000000000000E+00  3.74165774311357E+00  3.79428404782916E+00
  3.74165774311357E+00  0.00000000000000E+00  3.79428404782916E+00
  3.74165774311357E+00  3.74165774311357E+00  2.21082387416175E-02
 Reduced coordinates (xred)
  0.00000000000000E+00  0.00000000000000E+00  0.00000000000000E+00
  5.00000000000000E-01  5.00000000000000E-01  4.99183463430684E-01
  0.00000000000000E+00  5.00000000000000E-01  5.01962160256950E-01
  5.00000000000000E-01  0.00000000000000E+00  5.01962160256950E-01
  5.00000000000000E-01  5.00000000000000E-01  2.92479401603260E-03
 Cartesian forces (fcart) [Ha/bohr]; max,rms= 2.95194E-02 9.47442E-03 (free atoms)
  0.00000000000000E+00  0.00000000000000E+00  1.44145314566269E-02
  0.00000000000000E+00  0.00000000000000E+00 -4.26474724985055E-03
  0.00000000000000E+00  0.00000000000000E+00  9.68482425183957E-03
  0.00000000000000E+00  0.00000000000000E+00  9.68482425183957E-03
  0.00000000000000E+00  0.00000000000000E+00 -2.95194327104555E-02
 Reduced forces (fred)
  0.00000000000000E+00  0.00000000000000E+00 -2.13494005754701E-01
  0.00000000000000E+00  0.00000000000000E+00 -7.22991212943615E-02
  0.00000000000000E+00  0.00000000000000E+00 -1.77742600531564E-01
  0.00000000000000E+00  0.00000000000000E+00 -1.77742600531564E-01
  0.00000000000000E+00  0.00000000000000E+00  1.18598635076488E-01
 Total energy (etotal) [Ha]= -6.39591865584298E+01

 Difference of energy with previous step (new-old):
           Absolute (Ha)=-1.08494E+00
           Relative     =-1.71081E-02

--- Iteration: ( 3/15) Internal Cycle: (1/1)
--------------------------------------------------------------------------------

---SELF-CONSISTENT-FIELD CONVERGENCE--------------------------------------------

     iter   Etot(hartree)      deltaE(h)  residm     vres2
 ETOT  1  -61.620791862513    -6.162E+01 9.545E-03 1.885E+04
 ETOT  2  -57.107079326959     4.514E+00 1.429E-02 1.793E+04
 ETOT  3  -66.775852295018    -9.669E+00 8.693E-02 1.058E+04
 ETOT  4  -66.134301919260     6.416E-01 8.309E-02 6.056E+03
 ETOT  5  -68.086995820101    -1.953E+00 4.234E-02 4.540E+03
 ETOT  6  -63.483972016037     4.603E+00 6.408E-02 7.312E+03
 ETOT  7  -66.850630187477    -3.367E+00 5.793E-02 7.134E+03
 ETOT  8  -64.128827539929     2.722E+00 5.876E-02 6.857E+03
 ETOT  9  -67.322624482727    -3.194E+00 7.797E-02 5.988E+03
 ETOT 10  -64.583504680125     2.739E+00 5.544E-02 5.892E+03
 ETOT 11  -67.167031563967    -2.584E+00 1.009E-01 6.391E+03
 ETOT 12  -64.057640089271     3.109E+00 6.897E-02 6.771E+03
 ETOT 13  -67.183379443834    -3.126E+00 7.534E-02 6.260E+03
 ETOT 14  -64.637900976785     2.545E+00 8.080E-02 5.896E+03
 ETOT 15  -67.363256980793    -2.725E+00 7.779E-02 5.936E+03
 ETOT 16  -64.462455821611     2.901E+00 6.972E-02 6.071E+03
 ETOT 17  -67.206835633436    -2.744E+00 1.010E-01 6.258E+03
 ETOT 18  -64.189041944504     3.018E+00 6.527E-02 6.349E+03
 ETOT 19  -67.072366093521    -2.883E+00 5.871E-02 6.478E+03
 ETOT 20  -64.002251762882     3.070E+00 6.295E-02 6.717E+03
 ETOT 21  -67.011136558294    -3.009E+00 1.027E-01 6.535E+03
 ETOT 22  -64.908509022169     2.103E+00 7.466E-02 5.671E+03
 ETOT 23  -67.253907382982    -2.345E+00 5.672E-02 5.996E+03
 ETOT 24  -63.468818905462     3.785E+00 6.557E-02 7.255E+03
 ETOT 25  -66.896880570115    -3.428E+00 8.617E-02 6.856E+03
 ETOT 26  -64.631643173073     2.265E+00 7.523E-02 5.866E+03
 ETOT 27  -67.224569874719    -2.593E+00 1.096E-01 6.040E+03
 ETOT 28  -63.705363363747     3.519E+00 6.359E-02 6.901E+03
 ETOT 29  -66.970226594174    -3.265E+00 8.821E-02 6.755E+03
 ETOT 30  -64.200132220839     2.770E+00 7.012E-02 6.572E+03
 ETOT 31  -67.389767256078    -3.190E+00 7.083E-02 6.001E+03
 ETOT 32  -64.917738071670     2.472E+00 6.476E-02 5.559E+03
 ETOT 33  -67.032886892555    -2.115E+00 5.139E-02 6.480E+03
 ETOT 34  -63.286540193069     3.746E+00 8.038E-02 7.741E+03
 ETOT 35  -66.750029165620    -3.463E+00 7.053E-02 7.094E+03
 ETOT 36  -64.171202267267     2.579E+00 7.166E-02 6.502E+03
 ETOT 37  -67.062045955288    -2.891E+00 9.413E-02 6.512E+03
 ETOT 38  -64.348831068704     2.713E+00 5.898E-02 6.293E+03
 ETOT 39  -66.989225639307    -2.640E+00 6.678E-02 6.528E+03
 ETOT 40  -63.398755277219     3.590E+00 7.028E-02 7.350E+03
 ETOT 41  -66.864651019851    -3.466E+00 1.006E-01 6.874E+03
 ETOT 42  -64.756856551175     2.108E+00 5.834E-02 5.893E+03
 ETOT 43  -67.321211012433    -2.564E+00 6.332E-02 5.974E+03
 ETOT 44  -63.754987999697     3.566E+00 5.846E-02 6.828E+03
 ETOT 45  -66.985365444188    -3.230E+00 7.865E-02 6.801E+03
 ETOT 46  -64.440605720510     2.545E+00 6.271E-02 6.228E+03
 ETOT 47  -67.226394324173    -2.786E+00 7.225E-02 6.236E+03
 ETOT 48  -64.182214450065     3.044E+00 6.965E-02 6.475E+03
 ETOT 49  -67.060113342307    -2.878E+00 6.651E-02 6.436E+03
 ETOT 50  -64.397113557609     2.663E+00 6.933E-02 6.218E+03
 ETOT 51  -67.147832044099    -2.751E+00 6.614E-02 6.274E+03
 ETOT 52  -63.840735592109     3.307E+00 7.175E-02 6.858E+03
 ETOT 53  -67.096546694480    -3.256E+00 6.552E-02 6.584E+03
 ETOT 54  -64.296693913185     2.800E+00 6.782E-02 6.230E+03
 ETOT 55  -67.200456980794    -2.904E+00 6.534E-02 6.311E+03
 ETOT 56  -64.209691774035     2.991E+00 6.034E-02 6.456E+03
 ETOT 57  -66.969025954073    -2.759E+00 1.241E-01 6.662E+03
 ETOT 58  -64.082698976391     2.886E+00 6.520E-02 6.699E+03
 ETOT 59  -66.968488033440    -2.886E+00 8.078E-02 6.540E+03
 ETOT 60  -63.776406165707     3.192E+00 6.657E-02 6.853E+03
 ETOT 61  -66.998112952596    -3.222E+00 6.078E-02 6.752E+03
 ETOT 62  -64.043412981479     2.955E+00 7.300E-02 6.558E+03
 ETOT 63  -67.070784162579    -3.027E+00 1.034E-01 6.420E+03
 ETOT 64  -64.547528943878     2.523E+00 7.228E-02 5.919E+03
 ETOT 65  -67.085009515172    -2.537E+00 7.473E-02 6.323E+03
 ETOT 66  -63.362241625129     3.723E+00 7.102E-02 7.462E+03
 ETOT 67  -66.822924087911    -3.461E+00 8.306E-02 7.025E+03
 ETOT 68  -64.398536989021     2.424E+00 6.725E-02 6.195E+03
 ETOT 69  -67.127202265578    -2.729E+00 6.739E-02 6.297E+03
 ETOT 70  -63.795067700517     3.332E+00 7.799E-02 6.822E+03
 ETOT 71  -67.033385378584    -3.238E+00 8.775E-02 6.747E+03
 ETOT 72  -64.515379870247     2.518E+00 6.662E-02 6.099E+03
 ETOT 73  -67.202981661692    -2.688E+00 8.207E-02 6.116E+03
 ETOT 74  -64.072964727299     3.130E+00 6.024E-02 6.496E+03
 ETOT 75  -67.088805494664    -3.016E+00 5.871E-02 6.424E+03
 ETOT 76  -64.475940984080     2.613E+00 8.019E-02 6.189E+03
 ETOT 77  -67.324408745633    -2.848E+00 5.273E-02 6.094E+03
 ETOT 78  -64.251756894716     3.073E+00 6.501E-02 6.277E+03
 ETOT 79  -67.073553176618    -2.822E+00 5.993E-02 6.516E+03
 ETOT 80  -63.515654917965     3.558E+00 7.711E-02 7.318E+03
 ETOT 81  -67.168373499231    -3.653E+00 5.630E-02 6.452E+03
 ETOT 82  -65.034855725363     2.134E+00 6.477E-02 5.415E+03
 ETOT 83  -67.166196261902    -2.131E+00 5.521E-02 6.276E+03
 ETOT 84  -63.602627339846     3.564E+00 7.491E-02 7.238E+03
 ETOT 85  -66.912471355541    -3.310E+00 6.117E-02 6.782E+03
 ETOT 86  -63.941779309491     2.971E+00 8.091E-02 6.672E+03
 ETOT 87  -67.084093181127    -3.142E+00 7.317E-02 6.501E+03
 ETOT 88  -64.365638371643     2.718E+00 6.711E-02 6.298E+03
 ETOT 89  -67.134772175983    -2.769E+00 9.891E-02 6.255E+03
 ETOT 90  -64.731465808018     2.403E+00 5.985E-02 5.897E+03
 ETOT 91  -67.099650676966    -2.368E+00 6.562E-02 6.256E+03
 ETOT 92  -63.524934682530     3.575E+00 6.804E-02 7.240E+03
 ETOT 93  -66.764597551678    -3.240E+00 6.909E-02 6.994E+03
 ETOT 94  -63.726073375859     3.039E+00 7.049E-02 7.168E+03
 ETOT 95  -67.164575687785    -3.439E+00 8.607E-02 6.293E+03
 ETOT 96  -65.232485173396     1.932E+00 5.990E-02 5.278E+03
 ETOT 97  -67.290694272745    -2.058E+00 6.676E-02 5.952E+03
 ETOT 98  -63.613221040174     3.677E+00 6.746E-02 7.102E+03
 ETOT 99  -66.672098789216    -3.059E+00 6.937E-02 7.144E+03
 ETOT  100  -63.672424800915     3.000E+00 6.892E-02 7.211E+03
 ETOT  101  -66.870631969532    -3.198E+00 9.695E-02 6.744E+03
 ETOT  102  -64.066690038913     2.804E+00 6.538E-02 6.505E+03
 ETOT  103  -67.176020577424    -3.109E+00 8.088E-02 6.363E+03
 ETOT  104  -64.760224561775     2.416E+00 6.539E-02 5.908E+03
 ETOT  105  -67.231012759574    -2.471E+00 6.617E-02 6.089E+03
 ETOT  106  -63.712837869285     3.518E+00 6.630E-02 6.958E+03
 ETOT  107  -67.108413109710    -3.396E+00 7.281E-02 6.602E+03
 ETOT  108  -64.682521410852     2.426E+00 7.907E-02 5.945E+03
 ETOT  109  -67.331883257608    -2.649E+00 5.714E-02 5.907E+03
 ETOT  110  -64.247346534366     3.085E+00 6.371E-02 6.301E+03
 ETOT  111  -67.121865510947    -2.875E+00 5.493E-02 6.409E+03
 ETOT  112  -64.218212291464     2.904E+00 6.762E-02 6.452E+03
 ETOT  113  -67.072275670480    -2.854E+00 5.927E-02 6.400E+03
 ETOT  114  -64.302371217568     2.770E+00 6.981E-02 6.350E+03
 ETOT  115  -67.045862075846    -2.743E+00 8.817E-02 6.446E+03
 ETOT  116  -63.971214769381     3.075E+00 7.730E-02 6.756E+03
 ETOT  117  -66.936391719102    -2.965E+00 6.955E-02 6.811E+03
 ETOT  118  -63.901421185386     3.035E+00 6.166E-02 6.811E+03
 ETOT  119  -67.012409101181    -3.111E+00 1.074E-01 6.569E+03
 ETOT  120  -64.198382999551     2.814E+00 7.096E-02 6.382E+03
 ETOT  121  -67.237652151024    -3.039E+00 6.015E-02 6.202E+03
 ETOT  122  -64.610299247214     2.627E+00 5.921E-02 5.869E+03
 ETOT  123  -67.137189633108    -2.527E+00 9.854E-02 6.226E+03
 ETOT  124  -63.902295288610     3.235E+00 7.611E-02 6.795E+03
 ETOT  125  -66.907360642132    -3.005E+00 5.671E-02 6.768E+03
 ETOT  126  -63.866991398372     3.040E+00 6.731E-02 6.867E+03
 ETOT  127  -67.015352442332    -3.148E+00 9.581E-02 6.580E+03
 ETOT  128  -64.285476571230     2.730E+00 7.253E-02 6.315E+03
 ETOT  129  -67.157175053502    -2.872E+00 5.907E-02 6.478E+03
 ETOT  130  -63.932299725260     3.225E+00 7.229E-02 6.688E+03
 ETOT  131  -67.117182692074    -3.185E+00 6.400E-02 6.511E+03
 ETOT  132  -64.234317065120     2.883E+00 6.993E-02 6.286E+03
 ETOT  133  -67.086091128332    -2.852E+00 9.930E-02 6.423E+03
 ETOT  134  -64.021255747718     3.065E+00 8.023E-02 6.696E+03
 ETOT  135  -66.799978103517    -2.779E+00 6.441E-02 6.829E+03
 ETOT  136  -63.893561099365     2.906E+00 6.158E-02 6.898E+03
 ETOT  137  -67.016104488483    -3.123E+00 7.131E-02 6.518E+03
 ETOT  138  -64.496808936203     2.519E+00 7.317E-02 6.198E+03
 ETOT  139  -67.234819158804    -2.738E+00 6.608E-02 6.167E+03
 ETOT  140  -64.290176759999     2.945E+00 6.377E-02 6.289E+03
 ETOT  141  -67.170860584131    -2.881E+00 8.111E-02 6.312E+03
 ETOT  142  -64.063512200730     3.107E+00 6.477E-02 6.580E+03
 ETOT  143  -66.982875427586    -2.919E+00 7.263E-02 6.626E+03
 ETOT  144  -64.218086839529     2.765E+00 6.531E-02 6.340E+03
 ETOT  145  -66.917737431136    -2.700E+00 5.309E-02 6.648E+03
 ETOT  146  -63.679619952373     3.238E+00 6.948E-02 7.175E+03
 ETOT  147  -66.834075493276    -3.154E+00 6.979E-02 6.829E+03
 ETOT  148  -63.897161875482     2.937E+00 6.937E-02 6.690E+03
 ETOT  149  -67.051129403785    -3.154E+00 7.286E-02 6.561E+03
 ETOT  150  -63.739562761160     3.312E+00 5.752E-02 6.834E+03
 ETOT  151  -66.910798136176    -3.171E+00 9.403E-02 6.802E+03
 ETOT  152  -64.383851648006     2.527E+00 5.903E-02 6.212E+03
 ETOT  153  -67.221798194202    -2.838E+00 9.945E-02 6.120E+03
 ETOT  154  -64.164550669868     3.057E+00 7.126E-02 6.405E+03
 ETOT  155  -66.997310645627    -2.833E+00 6.745E-02 6.662E+03
 ETOT  156  -63.805547824573     3.192E+00 7.964E-02 6.823E+03
 ETOT  157  -66.936334990234    -3.131E+00 9.258E-02 6.682E+03
 ETOT  158  -64.102356783201     2.834E+00 6.911E-02 6.537E+03
 ETOT  159  -66.839890750332    -2.738E+00 7.045E-02 6.799E+03
 ETOT  160  -63.907290152945     2.933E+00 8.047E-02 6.915E+03
 ETOT  161  -67.082567662724    -3.175E+00 9.611E-02 6.372E+03
 ETOT  162  -64.167917961988     2.915E+00 6.496E-02 6.402E+03
 ETOT  163  -67.215304240223    -3.047E+00 7.869E-02 6.241E+03
 ETOT  164  -64.775597134223     2.440E+00 7.077E-02 5.764E+03
 ETOT  165  -67.083042782749    -2.307E+00 5.147E-02 6.325E+03
 ETOT  166  -63.243702255611     3.839E+00 5.798E-02 7.585E+03
 ETOT  167  -66.775082597982    -3.531E+00 8.157E-02 6.996E+03
 ETOT  168  -64.756976307037     2.018E+00 7.814E-02 5.865E+03
 ETOT  169  -67.249050454818    -2.492E+00 9.004E-02 5.957E+03
 ETOT  170  -63.598797617252     3.650E+00 6.699E-02 7.031E+03
 ETOT  171  -66.962238423601    -3.363E+00 5.793E-02 6.910E+03
 ETOT  172  -64.353027507530     2.609E+00 6.566E-02 6.382E+03
 ETOT  173  -67.113592405046    -2.761E+00 5.318E-02 6.241E+03
 ETOT  174  -64.239764849330     2.874E+00 6.566E-02 6.458E+03
 ETOT  175  -66.945144633256    -2.705E+00 6.177E-02 6.705E+03
 ETOT  176  -63.917104520489     3.028E+00 7.410E-02 7.011E+03
 ETOT  177  -67.000375665616    -3.083E+00 1.004E-01 6.498E+03
 ETOT  178  -63.982490397305     3.018E+00 6.121E-02 6.683E+03
 ETOT  179  -66.994051891337    -3.012E+00 5.414E-02 6.742E+03
 ETOT  180  -64.022770852870     2.971E+00 6.621E-02 6.787E+03
 ETOT  181  -66.987732328898    -2.965E+00 6.210E-02 6.587E+03
 ETOT  182  -63.945463873487     3.042E+00 7.556E-02 6.707E+03
 ETOT  183  -66.734928005558    -2.789E+00 6.288E-02 6.836E+03
 ETOT  184  -63.891698175539     2.843E+00 6.770E-02 7.074E+03
 ETOT  185  -67.025314570343    -3.134E+00 9.859E-02 6.469E+03
 ETOT  186  -64.755461432343     2.270E+00 7.199E-02 5.920E+03
 ETOT  187  -67.071541450611    -2.316E+00 8.185E-02 6.300E+03
 ETOT  188  -63.309046403192     3.762E+00 7.026E-02 7.427E+03
 ETOT  189  -66.867624970718    -3.559E+00 6.671E-02 6.982E+03
 ETOT  190  -64.398434330830     2.469E+00 5.713E-02 6.359E+03
 ETOT  191  -67.179680800132    -2.781E+00 9.806E-02 6.151E+03
 ETOT  192  -64.258075516251     2.922E+00 8.673E-02 6.460E+03
 ETOT  193  -66.917315609987    -2.659E+00 5.404E-02 6.712E+03
 ETOT  194  -64.100562988596     2.817E+00 6.276E-02 6.835E+03
 ETOT  195  -66.894292201591    -2.794E+00 8.570E-02 6.632E+03
 ETOT  196  -63.512409067225     3.382E+00 6.603E-02 7.260E+03
 ETOT  197  -66.854308939936    -3.342E+00 1.004E-01 6.838E+03
 ETOT  198  -64.691555672427     2.163E+00 5.956E-02 5.949E+03
 ETOT  199  -67.265921943236    -2.574E+00 5.250E-02 6.116E+03
 ETOT  200  -63.932855763556     3.333E+00 6.016E-02 6.784E+03

 Cartesian components of stress tensor (hartree/bohr^3)
  sigma(1 1)=  7.58125057E-03  sigma(3 2)=  0.00000000E+00
  sigma(2 2)=  7.58125057E-03  sigma(3 1)=  0.00000000E+00
  sigma(3 3)=  7.16346264E-03  sigma(2 1)=  0.00000000E+00
 

 scprqt:  WARNING -
  nstep=  200 was not enough SCF cycles to converge;
  maximum energy difference=  3.333E+00 exceeds toldfe=  1.000E-09


---OUTPUT-----------------------------------------------------------------------

 Cartesian coordinates (xcart) [bohr]
  0.00000000000000E+00  0.00000000000000E+00  0.00000000000000E+00
  3.74165774311357E+00  3.74165774311357E+00  3.75474614050322E+00
  0.00000000000000E+00  3.74165774311357E+00  3.80830005728165E+00
  3.74165774311357E+00  0.00000000000000E+00  3.80830005728165E+00
  3.74165774311357E+00  3.74165774311357E+00  1.61643038419084E-03
 Reduced coordinates (xred)
  0.00000000000000E+00  0.00000000000000E+00  0.00000000000000E+00
  5.00000000000000E-01  5.00000000000000E-01  4.96731520398893E-01
  0.00000000000000E+00  5.00000000000000E-01  5.03816398446360E-01
  5.00000000000000E-01  0.00000000000000E+00  5.03816398446360E-01
  5.00000000000000E-01  5.00000000000000E-01  2.13844529646543E-04
 Cartesian forces (fcart) [Ha/bohr]; max,rms= 7.54761E-02 3.13661E-02 (free atoms)
  0.00000000000000E+00  0.00000000000000E+00 -2.07703495297601E-01
  0.00000000000000E+00  0.00000000000000E+00  7.54761476551170E-02
  0.00000000000000E+00  0.00000000000000E+00  5.09232698308493E-02
  0.00000000000000E+00  0.00000000000000E+00  5.09232698308493E-02
  0.00000000000000E+00  0.00000000000000E+00  3.03808079807853E-02
 Reduced forces (fred)
  0.00000000000000E+00  0.00000000000000E+00  1.83816168861523E+00
  0.00000000000000E+00  0.00000000000000E+00 -3.02366197740674E-01
  0.00000000000000E+00  0.00000000000000E+00 -1.16773338292406E-01
  0.00000000000000E+00  0.00000000000000E+00 -1.16773338292406E-01
  0.00000000000000E+00  0.00000000000000E+00  3.85051696750830E-02
 Total energy (etotal) [Ha]= -6.39328557635562E+01

 Difference of energy with previous step (new-old):
           Absolute (Ha)= 2.63308E-02
           Relative     = 4.11766E-04

--- Iteration: ( 4/15) Internal Cycle: (1/1)
--------------------------------------------------------------------------------

---SELF-CONSISTENT-FIELD CONVERGENCE--------------------------------------------

     iter   Etot(hartree)      deltaE(h)  residm     vres2
 ETOT  1  -61.359350881811    -6.136E+01 1.264E-02 2.010E+04
 ETOT  2  -63.176315062708    -1.817E+00 5.609E-03 1.021E+04
 ETOT  3  -65.881770496280    -2.705E+00 8.371E-02 8.131E+03
 ETOT  4  -62.337379548930     3.544E+00 6.965E-02 9.203E+03
 ETOT  5  -66.626598270366    -4.289E+00 9.856E-02 7.323E+03
 ETOT  6  -64.736729753470     1.890E+00 5.230E-02 5.983E+03
 ETOT  7  -66.968776932761    -2.232E+00 8.236E-02 6.492E+03
 ETOT  8  -64.016990927605     2.952E+00 6.357E-02 7.026E+03
 ETOT  9  -66.859830829461    -2.843E+00 9.576E-02 6.602E+03
 ETOT 10  -63.597771068751     3.262E+00 6.560E-02 7.199E+03
 ETOT 11  -66.994069105421    -3.396E+00 7.039E-02 6.804E+03
 ETOT 12  -64.909799097861     2.084E+00 7.257E-02 5.840E+03
 ETOT 13  -67.241646683630    -2.332E+00 4.950E-02 6.106E+03
 ETOT 14  -63.204381069218     4.037E+00 6.012E-02 7.510E+03
 ETOT 15  -66.875801894883    -3.671E+00 8.756E-02 7.033E+03
 ETOT 16  -64.566640778045     2.309E+00 6.117E-02 6.066E+03
 ETOT 17  -67.139000092473    -2.572E+00 6.531E-02 6.300E+03
 ETOT 18  -64.070363010115     3.069E+00 6.181E-02 6.578E+03
 ETOT 19  -66.954148413631    -2.884E+00 7.258E-02 6.675E+03
 ETOT 20  -63.459918328101     3.494E+00 7.689E-02 7.251E+03
 ETOT 21  -67.033980281087    -3.574E+00 7.748E-02 6.736E+03
 ETOT 22  -64.432740263392     2.601E+00 6.991E-02 6.089E+03
 ETOT 23  -67.045186664886    -2.612E+00 1.251E-01 6.547E+03
 ETOT 24  -63.687333709921     3.358E+00 6.947E-02 7.150E+03
 ETOT 25  -67.001573937883    -3.314E+00 5.860E-02 6.667E+03
 ETOT 26  -64.150443719082     2.851E+00 5.713E-02 6.441E+03
 ETOT 27  -67.105015992998    -2.955E+00 7.617E-02 6.514E+03
 ETOT 28  -64.477264489846     2.628E+00 7.367E-02 6.219E+03
 ETOT 29  -67.119117095414    -2.642E+00 7.710E-02 6.332E+03
 ETOT 30  -63.856755768145     3.262E+00 6.959E-02 6.867E+03
 ETOT 31  -66.897094121576    -3.040E+00 5.949E-02 6.932E+03
 ETOT 32  -63.811935986714     3.085E+00 6.810E-02 7.100E+03
 ETOT 33  -67.140352127241    -3.328E+00 8.686E-02 6.445E+03
 ETOT 34  -64.292743811914     2.848E+00 6.476E-02 6.283E+03
 ETOT 35  -67.024687080320    -2.732E+00 1.049E-01 6.656E+03
 ETOT 36  -64.295188347795     2.729E+00 6.466E-02 6.737E+03
 ETOT 37  -67.243389095714    -2.948E+00 6.689E-02 6.118E+03
 ETOT 38  -64.097094676517     3.146E+00 6.177E-02 6.536E+03
 ETOT 39  -67.000214030917    -2.903E+00 1.068E-01 6.709E+03
 ETOT 40  -64.288940058966     2.711E+00 7.130E-02 6.446E+03
 ETOT 41  -67.194175426343    -2.905E+00 6.037E-02 6.302E+03
 ETOT 42  -64.144216846036     3.050E+00 6.172E-02 6.634E+03
 ETOT 43  -67.079024931297    -2.935E+00 7.151E-02 6.316E+03
 ETOT 44  -64.439621305028     2.639E+00 5.419E-02 6.232E+03
 ETOT 45  -67.129478805009    -2.690E+00 5.310E-02 6.431E+03
 ETOT 46  -63.998391008754     3.131E+00 6.891E-02 6.716E+03
 ETOT 47  -66.935541009246    -2.937E+00 8.408E-02 6.674E+03
 ETOT 48  -64.274340203565     2.661E+00 6.747E-02 6.445E+03
 ETOT 49  -67.133355846369    -2.859E+00 6.670E-02 6.392E+03
 ETOT 50  -63.638361258991     3.495E+00 5.964E-02 7.100E+03
 ETOT 51  -67.038001011306    -3.400E+00 1.047E-01 6.724E+03
 ETOT 52  -64.818632673796     2.219E+00 7.099E-02 5.810E+03
 ETOT 53  -67.086743071537    -2.268E+00 6.308E-02 6.336E+03
 ETOT 54  -63.572714397240     3.514E+00 7.048E-02 7.296E+03
 ETOT 55  -67.024803930302    -3.452E+00 6.301E-02 6.745E+03
 ETOT 56  -64.650755666395     2.374E+00 7.440E-02 5.888E+03
 ETOT 57  -67.188798337507    -2.538E+00 9.447E-02 6.168E+03
 ETOT 58  -64.037986562734     3.151E+00 6.539E-02 6.734E+03
 ETOT 59  -66.892627155423    -2.855E+00 5.831E-02 6.827E+03
 ETOT 60  -63.753081024216     3.140E+00 7.286E-02 7.081E+03
 ETOT 61  -67.161401150491    -3.408E+00 8.008E-02 6.504E+03
 ETOT 62  -64.400252305590     2.761E+00 6.955E-02 6.109E+03
 ETOT 63  -67.143939240598    -2.744E+00 6.570E-02 6.468E+03
 ETOT 64  -64.097774551636     3.046E+00 6.466E-02 6.669E+03
 ETOT 65  -67.054219901812    -2.956E+00 1.115E-01 6.438E+03
 ETOT 66  -64.122998966058     2.931E+00 6.542E-02 6.529E+03
 ETOT 67  -67.049536623536    -2.927E+00 8.212E-02 6.526E+03
 ETOT 68  -64.509475541213     2.540E+00 7.043E-02 6.088E+03
 ETOT 69  -67.125877960572    -2.616E+00 7.788E-02 6.370E+03
 ETOT 70  -63.563632555198     3.562E+00 7.133E-02 7.239E+03
 ETOT 71  -66.853701308261    -3.290E+00 8.333E-02 6.899E+03
 ETOT 72  -64.404603455802     2.449E+00 6.237E-02 6.262E+03
 ETOT 73  -67.310002371925    -2.905E+00 6.537E-02 6.064E+03
 ETOT 74  -64.679405797862     2.631E+00 7.748E-02 5.956E+03
 ETOT 75  -67.281465637673    -2.602E+00 5.693E-02 6.107E+03
 ETOT 76  -64.250827688087     3.031E+00 6.000E-02 6.500E+03
 ETOT 77  -66.875376260741    -2.625E+00 6.982E-02 6.732E+03
 ETOT 78  -64.017884750423     2.857E+00 6.716E-02 7.006E+03
 ETOT 79  -67.018030930806    -3.000E+00 6.654E-02 6.578E+03
 ETOT 80  -64.046193312302     2.972E+00 7.301E-02 6.596E+03
 ETOT 81  -66.944052156241    -2.898E+00 6.663E-02 6.776E+03
 ETOT 82  -63.436246416874     3.508E+00 6.707E-02 7.269E+03
 ETOT 83  -66.925669483221    -3.489E+00 7.586E-02 6.951E+03
 ETOT 84  -64.726868854956     2.199E+00 7.367E-02 5.892E+03
 ETOT 85  -67.158222176167    -2.431E+00 6.644E-02 6.230E+03
 ETOT 86  -63.411573400229     3.747E+00 6.749E-02 7.427E+03
 ETOT 87  -66.783489892449    -3.372E+00 6.837E-02 7.133E+03
 ETOT 88  -63.649927178051     3.134E+00 7.893E-02 7.047E+03
 ETOT 89  -67.254457075976    -3.605E+00 7.285E-02 6.468E+03
 ETOT 90  -65.130036079412     2.124E+00 6.364E-02 5.327E+03
 ETOT 91  -67.356209440076    -2.226E+00 8.943E-02 5.884E+03
 ETOT 92  -64.005689417001     3.351E+00 6.882E-02 6.773E+03
 ETOT 93  -66.942655241615    -2.937E+00 5.931E-02 6.806E+03
 ETOT 94  -63.971484759686     2.971E+00 7.030E-02 6.838E+03
 ETOT 95  -67.094434140572    -3.123E+00 7.080E-02 6.464E+03
 ETOT 96  -64.470701863082     2.624E+00 6.185E-02 6.270E+03
 ETOT 97  -67.022373304788    -2.552E+00 6.181E-02 6.426E+03
 ETOT 98  -64.105583123827     2.917E+00 6.131E-02 6.717E+03
 ETOT 99  -66.867150923131    -2.762E+00 6.691E-02 6.819E+03
 ETOT  100  -63.652365058175     3.215E+00 6.145E-02 7.156E+03
 ETOT  101  -66.799934636177    -3.148E+00 7.026E-02 6.973E+03
 ETOT  102  -63.953758445519     2.846E+00 7.022E-02 6.884E+03
 ETOT  103  -67.136680903855    -3.183E+00 7.771E-02 6.438E+03
 ETOT  104  -64.597544701622     2.539E+00 6.421E-02 5.926E+03
 ETOT  105  -67.132675724915    -2.535E+00 9.654E-02 6.314E+03
 ETOT  106  -63.777751619205     3.355E+00 6.675E-02 7.152E+03
 ETOT  107  -67.014677057079    -3.237E+00 7.913E-02 6.563E+03
 ETOT  108  -64.657035582404     2.358E+00 7.310E-02 5.886E+03
 ETOT  109  -67.100202214750    -2.443E+00 1.161E-01 6.342E+03
 ETOT  110  -63.750336661949     3.350E+00 7.331E-02 7.009E+03
 ETOT  111  -67.053591965277    -3.303E+00 7.532E-02 6.658E+03
 ETOT  112  -64.704384947150     2.349E+00 6.150E-02 5.955E+03
 ETOT  113  -67.222973414352    -2.519E+00 7.597E-02 6.169E+03
 ETOT  114  -63.917682192110     3.305E+00 8.185E-02 6.760E+03
 ETOT  115  -67.070286259822    -3.153E+00 6.236E-02 6.602E+03
 ETOT  116  -64.116832853941     2.953E+00 5.964E-02 6.465E+03
 ETOT  117  -66.944997592286    -2.828E+00 5.880E-02 6.686E+03
 ETOT  118  -64.077083128785     2.868E+00 7.187E-02 6.710E+03
 ETOT  119  -67.025956867307    -2.949E+00 1.201E-01 6.503E+03
 ETOT  120  -64.269178973884     2.757E+00 6.648E-02 6.387E+03
 ETOT  121  -66.999194573166    -2.730E+00 1.210E-01 6.435E+03
 ETOT  122  -64.057826473591     2.941E+00 6.447E-02 6.623E+03
 ETOT  123  -66.992860632925    -2.935E+00 5.868E-02 6.673E+03
 ETOT  124  -63.777165227702     3.216E+00 6.847E-02 6.932E+03
 ETOT  125  -66.992401488712    -3.215E+00 8.182E-02 6.619E+03
 ETOT  126  -64.734489167154     2.258E+00 6.212E-02 5.850E+03
 ETOT  127  -67.272178638326    -2.538E+00 5.597E-02 6.038E+03
 ETOT  128  -64.178896211632     3.093E+00 6.983E-02 6.577E+03
 ETOT  129  -67.048650135732    -2.870E+00 8.011E-02 6.526E+03
 ETOT  130  -64.130790251038     2.918E+00 6.586E-02 6.671E+03
 ETOT  131  -67.176538614313    -3.046E+00 7.747E-02 6.335E+03
 ETOT  132  -64.488069522671     2.688E+00 6.271E-02 6.085E+03
 ETOT  133  -67.161737392163    -2.674E+00 9.369E-02 6.308E+03
 ETOT  134  -64.727118010963     2.435E+00 6.249E-02 6.062E+03
 ETOT  135  -67.063191107837    -2.336E+00 4.927E-02 6.346E+03
 ETOT  136  -63.134533179645     3.929E+00 6.647E-02 7.793E+03
 ETOT  137  -66.829413993893    -3.695E+00 1.022E-01 7.090E+03
 ETOT  138  -64.946977081320     1.882E+00 6.592E-02 5.633E+03
 ETOT  139  -67.381454692878    -2.434E+00 5.320E-02 5.868E+03
 ETOT  140  -63.846415278721     3.535E+00 6.205E-02 6.821E+03
 ETOT  141  -66.953201277174    -3.107E+00 6.152E-02 6.792E+03
 ETOT  142  -64.382352163608     2.571E+00 7.616E-02 6.275E+03
 ETOT  143  -67.242463379726    -2.860E+00 5.399E-02 6.172E+03
 ETOT  144  -64.080660234382     3.162E+00 5.968E-02 6.598E+03
 ETOT  145  -67.020491254709    -2.940E+00 7.258E-02 6.658E+03
 ETOT  146  -64.039306572410     2.981E+00 6.322E-02 6.646E+03
 ETOT  147  -67.010097543372    -2.971E+00 8.527E-02 6.642E+03
 ETOT  148  -63.996522902691     3.014E+00 7.108E-02 6.772E+03
 ETOT  149  -67.119209275322    -3.123E+00 1.088E-01 6.372E+03
 ETOT  150  -64.845015901382     2.274E+00 6.096E-02 5.698E+03
 ETOT  151  -67.218131908448    -2.373E+00 5.247E-02 6.228E+03
 ETOT  152  -63.377237884995     3.841E+00 7.461E-02 7.374E+03
 ETOT  153  -66.827894012256    -3.451E+00 7.366E-02 7.015E+03
 ETOT  154  -64.163911905081     2.664E+00 6.818E-02 6.548E+03
 ETOT  155  -67.196012267569    -3.032E+00 7.777E-02 6.217E+03
 ETOT  156  -64.654934892970     2.541E+00 5.422E-02 6.007E+03
 ETOT  157  -67.053619179375    -2.399E+00 5.428E-02 6.494E+03
 ETOT  158  -63.763333415020     3.290E+00 6.176E-02 7.091E+03
 ETOT  159  -66.702386833394    -2.939E+00 7.532E-02 7.011E+03
 ETOT  160  -63.699001674347     3.003E+00 6.733E-02 7.056E+03
 ETOT  161  -66.919716329882    -3.221E+00 8.326E-02 6.768E+03
 ETOT  162  -63.730965297029     3.189E+00 8.286E-02 6.991E+03
 ETOT  163  -66.948605375734    -3.218E+00 7.417E-02 6.831E+03
 ETOT  164  -64.250269688742     2.698E+00 6.405E-02 6.373E+03
 ETOT  165  -67.242849672107    -2.993E+00 1.007E-01 6.173E+03
 ETOT  166  -64.370641260288     2.872E+00 6.563E-02 6.184E+03
 ETOT  167  -67.049601630910    -2.679E+00 6.472E-02 6.556E+03
 ETOT  168  -63.410051931476     3.640E+00 5.387E-02 7.317E+03
 ETOT  169  -66.856570394714    -3.447E+00 7.208E-02 7.123E+03
 ETOT  170  -63.768394487047     3.088E+00 7.192E-02 6.885E+03
 ETOT  171  -67.069483999317    -3.301E+00 8.477E-02 6.590E+03
 ETOT  172  -64.718241670263     2.351E+00 7.156E-02 5.851E+03
 ETOT  173  -67.217115441126    -2.499E+00 6.100E-02 6.186E+03
 ETOT  174  -64.096620249419     3.120E+00 5.678E-02 6.609E+03
 ETOT  175  -66.998044457914    -2.901E+00 6.912E-02 6.586E+03
 ETOT  176  -63.899066328141     3.099E+00 7.940E-02 6.818E+03
 ETOT  177  -66.930334173393    -3.031E+00 7.919E-02 6.611E+03
 ETOT  178  -64.843526743246     2.087E+00 6.021E-02 5.715E+03
 ETOT  179  -67.153029947500    -2.310E+00 4.708E-02 6.169E+03
 ETOT  180  -62.954258804014     4.199E+00 7.189E-02 7.923E+03
 ETOT  181  -66.719997187084    -3.766E+00 8.921E-02 7.292E+03
 ETOT  182  -64.990844118096     1.729E+00 8.536E-02 5.732E+03
 ETOT  183  -67.655140929009    -2.664E+00 5.341E-02 5.450E+03
 ETOT  184  -63.989460072271     3.666E+00 6.379E-02 6.554E+03
 ETOT  185  -67.072583856083    -3.083E+00 5.370E-02 6.819E+03
 ETOT  186  -64.403043738839     2.670E+00 6.761E-02 6.490E+03
 ETOT  187  -67.374186651804    -2.971E+00 5.385E-02 5.952E+03
 ETOT  188  -64.252146318009     3.122E+00 5.858E-02 6.358E+03
 ETOT  189  -67.070509868315    -2.818E+00 6.878E-02 6.701E+03
 ETOT  190  -64.141198251622     2.929E+00 7.316E-02 6.611E+03
 ETOT  191  -67.118926489529    -2.978E+00 6.037E-02 6.355E+03
 ETOT  192  -64.183829425516     2.935E+00 7.008E-02 6.533E+03
 ETOT  193  -67.173742302812    -2.990E+00 8.809E-02 6.445E+03
 ETOT  194  -64.534761177283     2.639E+00 6.933E-02 6.052E+03
 ETOT  195  -66.912081726620    -2.377E+00 7.167E-02 6.601E+03
 ETOT  196  -63.435728656568     3.476E+00 7.698E-02 7.541E+03
 ETOT  197  -66.700102396295    -3.264E+00 8.598E-02 7.113E+03
 ETOT  198  -64.053787718666     2.646E+00 6.126E-02 6.738E+03
 ETOT  199  -67.019603701437    -2.966E+00 7.418E-02 6.528E+03
 ETOT  200  -64.030271958327     2.989E+00 7.155E-02 6.602E+03

 Cartesian components of stress tensor (hartree/bohr^3)
  sigma(1 1)=  6.88347179E-03  sigma(3 2)=  0.00000000E+00
  sigma(2 2)=  6.88347179E-03  sigma(3 1)=  0.00000000E+00
  sigma(3 3)=  7.31474187E-03  sigma(2 1)=  0.00000000E+00
 

 scprqt:  WARNING -
  nstep=  200 was not enough SCF cycles to converge;
  maximum energy difference=  2.989E+00 exceeds toldfe=  1.000E-09


---OUTPUT-----------------------------------------------------------------------

 Cartesian coordinates (xcart) [bohr]
  0.00000000000000E+00  0.00000000000000E+00  0.00000000000000E+00
  3.74165774311357E+00  3.74165774311357E+00  3.72159026578437E+00
  0.00000000000000E+00  3.74165774311357E+00  3.90110459803224E+00
  3.74165774311357E+00  0.00000000000000E+00  3.90110459803224E+00
  3.74165774311357E+00  3.74165774311357E+00 -7.21128239978314E-02
 Reduced coordinates (xred)
  0.00000000000000E+00  0.00000000000000E+00  0.00000000000000E+00
  5.00000000000000E-01  5.00000000000000E-01  4.92345187090872E-01
  0.00000000000000E+00  5.00000000000000E-01  5.16093910401079E-01
  5.00000000000000E-01  0.00000000000000E+00  5.16093910401079E-01
  5.00000000000000E-01  5.00000000000000E-01 -9.54011572667860E-03
 Cartesian forces (fcart) [Ha/bohr]; max,rms= 7.01390E-02 2.34812E-02 (free atoms)
  0.00000000000000E+00  0.00000000000000E+00  5.61665130248096E-03
  0.00000000000000E+00  0.00000000000000E+00 -7.01389641801450E-02
  0.00000000000000E+00  0.00000000000000E+00  1.43283492355434E-02
  0.00000000000000E+00  0.00000000000000E+00  1.43283492355434E-02
  0.00000000000000E+00  0.00000000000000E+00  3.58656144065773E-02
 Reduced forces (fred)
  0.00000000000000E+00  0.00000000000000E+00  1.00893188787631E-01
  0.00000000000000E+00  0.00000000000000E+00  6.73522653949050E-01
  0.00000000000000E+00  0.00000000000000E+00  3.50422958039758E-02
  0.00000000000000E+00  0.00000000000000E+00  3.50422958039758E-02
  0.00000000000000E+00  0.00000000000000E+00 -1.27755835494387E-01
 Total energy (etotal) [Ha]= -6.40302719583274E+01

 Difference of energy with previous step (new-old):
           Absolute (Ha)=-9.74162E-02
           Relative     =-1.52257E-03

--- Iteration: ( 5/15) Internal Cycle: (1/1)
--------------------------------------------------------------------------------

---SELF-CONSISTENT-FIELD CONVERGENCE--------------------------------------------

     iter   Etot(hartree)      deltaE(h)  residm     vres2
 ETOT  1  -56.719260768295    -5.672E+01 1.748E-02 4.114E+04
 ETOT  2  -61.212683141041    -4.493E+00 1.119E-02 1.381E+04
 ETOT  3  -66.055976043932    -4.843E+00 9.293E-02 1.132E+04
 ETOT  4  -64.555361154954     1.501E+00 5.335E-02 7.921E+03
 ETOT  5  -66.832992837625    -2.278E+00 6.524E-02 7.648E+03
 ETOT  6  -62.256466833129     4.577E+00 6.931E-02 1.148E+04
 ETOT  7  -66.435265239045    -4.179E+00 6.433E-02 1.027E+04
 ETOT  8  -64.428600321309     2.007E+00 6.640E-02 7.788E+03
 ETOT  9  -66.998321278720    -2.570E+00 5.156E-02 7.968E+03
 ETOT 10  -63.029993048877     3.968E+00 6.277E-02 1.024E+04
 ETOT 11  -66.435738991104    -3.406E+00 5.969E-02 1.009E+04
 ETOT 12  -63.688970950032     2.747E+00 6.070E-02 8.878E+03
 ETOT 13  -66.904571456495    -3.216E+00 8.870E-02 8.054E+03
 ETOT 14  -64.443800490128     2.461E+00 5.315E-02 8.190E+03
 ETOT 15  -66.771754864542    -2.328E+00 5.510E-02 9.011E+03
 ETOT 16  -63.625231991124     3.147E+00 5.792E-02 9.373E+03
 ETOT 17  -66.733221783350    -3.108E+00 7.582E-02 8.567E+03
 ETOT 18  -64.004280471937     2.729E+00 5.643E-02 8.971E+03
 ETOT 19  -66.756089346019    -2.752E+00 5.060E-02 9.147E+03
 ETOT 20  -63.274619015912     3.481E+00 5.430E-02 9.659E+03
 ETOT 21  -66.495142959554    -3.221E+00 7.589E-02 9.437E+03
 ETOT 22  -63.738176493941     2.757E+00 6.794E-02 9.078E+03
 ETOT 23  -66.836851697220    -3.099E+00 8.941E-02 8.769E+03
 ETOT 24  -64.111408307451     2.725E+00 5.730E-02 8.420E+03
 ETOT 25  -66.754270832597    -2.643E+00 9.991E-02 8.842E+03
 ETOT 26  -62.977891718196     3.776E+00 6.018E-02 1.017E+04
 ETOT 27  -66.616341434382    -3.638E+00 9.783E-02 9.594E+03
 ETOT 28  -64.393900081020     2.222E+00 6.295E-02 7.914E+03
 ETOT 29  -66.945741791549    -2.552E+00 6.898E-02 8.338E+03
 ETOT 30  -63.239683516999     3.706E+00 6.341E-02 9.894E+03
 ETOT 31  -66.662884601316    -3.423E+00 1.197E-01 9.433E+03
 ETOT 32  -64.284078129861     2.379E+00 5.496E-02 8.230E+03
 ETOT 33  -66.851161084492    -2.567E+00 5.590E-02 8.774E+03
 ETOT 34  -63.147890615737     3.703E+00 6.505E-02 9.972E+03
 ETOT 35  -66.491824194308    -3.344E+00 6.564E-02 9.727E+03
 ETOT 36  -63.893730178332     2.598E+00 6.839E-02 8.808E+03
 ETOT 37  -66.806349832594    -2.913E+00 7.016E-02 8.635E+03
 ETOT 38  -63.469368286159     3.337E+00 5.677E-02 9.513E+03
 ETOT 39  -66.523571542825    -3.054E+00 6.278E-02 9.680E+03
 ETOT 40  -63.774787565988     2.749E+00 6.155E-02 9.047E+03
 ETOT 41  -66.783935232154    -3.009E+00 6.220E-02 8.519E+03
 ETOT 42  -63.786541626218     2.997E+00 6.745E-02 9.071E+03
 ETOT 43  -66.861586797614    -3.075E+00 9.642E-02 9.039E+03
 ETOT 44  -64.085934427023     2.776E+00 6.010E-02 8.481E+03
 ETOT 45  -66.758107828105    -2.672E+00 8.738E-02 8.715E+03
 ETOT 46  -63.505688714277     3.252E+00 7.498E-02 9.569E+03
 ETOT 47  -66.596035158513    -3.090E+00 1.025E-01 9.382E+03
 ETOT 48  -64.156455410696     2.440E+00 4.797E-02 8.398E+03
 ETOT 49  -66.915586599787    -2.759E+00 5.812E-02 8.390E+03
 ETOT 50  -63.052352920644     3.863E+00 7.784E-02 1.006E+04
 ETOT 51  -66.497741419629    -3.445E+00 7.579E-02 9.958E+03
 ETOT 52  -63.838210179442     2.660E+00 5.894E-02 8.896E+03
 ETOT 53  -66.830962674229    -2.993E+00 9.402E-02 8.432E+03
 ETOT 54  -63.993548550919     2.837E+00 6.206E-02 8.736E+03
 ETOT 55  -66.696712372550    -2.703E+00 5.247E-02 9.331E+03
 ETOT 56  -63.673436611009     3.023E+00 5.494E-02 9.144E+03
 ETOT 57  -66.709626791056    -3.036E+00 6.237E-02 8.880E+03
 ETOT 58  -63.767033430093     2.943E+00 6.004E-02 9.244E+03
 ETOT 59  -66.553459977051    -2.786E+00 6.204E-02 9.331E+03
 ETOT 60  -63.345032768379     3.208E+00 6.268E-02 9.684E+03
 ETOT 61  -66.520572728932    -3.176E+00 1.008E-01 9.444E+03
 ETOT 62  -63.510968942563     3.010E+00 5.683E-02 9.245E+03
 ETOT 63  -66.824851194155    -3.314E+00 7.538E-02 8.651E+03
 ETOT 64  -64.457905478574     2.367E+00 5.443E-02 8.028E+03
 ETOT 65  -66.839682784853    -2.382E+00 5.231E-02 8.846E+03
 ETOT 66  -62.893405601042     3.946E+00 6.111E-02 1.035E+04
 ETOT 67  -66.525026896024    -3.632E+00 7.631E-02 9.717E+03
 ETOT 68  -64.190047016140     2.335E+00 6.077E-02 8.276E+03
 ETOT 69  -67.014033057017    -2.824E+00 6.738E-02 8.153E+03
 ETOT 70  -63.905722197880     3.108E+00 5.567E-02 9.139E+03
 ETOT 71  -66.543592455265    -2.638E+00 5.012E-02 9.714E+03
 ETOT 72  -63.266324546264     3.277E+00 6.214E-02 9.897E+03
 ETOT 73  -66.569844686371    -3.304E+00 8.928E-02 8.948E+03
 ETOT 74  -64.013103324042     2.557E+00 5.571E-02 8.796E+03
 ETOT 75  -66.602870484820    -2.590E+00 5.768E-02 9.353E+03
 ETOT 76  -63.394007646292     3.209E+00 7.165E-02 9.679E+03
 ETOT 77  -66.586649640030    -3.193E+00 8.647E-02 9.097E+03
 ETOT 78  -63.702819871128     2.884E+00 5.450E-02 9.096E+03
 ETOT 79  -66.658705344519    -2.956E+00 5.726E-02 9.323E+03
 ETOT 80  -63.369500224304     3.289E+00 6.457E-02 9.478E+03
 ETOT 81  -66.790712948808    -3.421E+00 7.270E-02 8.910E+03
 ETOT 82  -64.545567190908     2.245E+00 6.907E-02 7.977E+03
 ETOT 83  -66.824756767617    -2.279E+00 5.430E-02 8.753E+03
 ETOT 84  -63.266767945472     3.558E+00 5.451E-02 9.844E+03
 ETOT 85  -66.471344871331    -3.205E+00 5.971E-02 9.619E+03
 ETOT 86  -63.354562574885     3.117E+00 5.806E-02 9.637E+03
 ETOT 87  -66.566953594717    -3.212E+00 7.028E-02 9.506E+03
 ETOT 88  -63.756752675126     2.810E+00 6.303E-02 8.981E+03
 ETOT 89  -66.729401013272    -2.973E+00 7.777E-02 8.745E+03
 ETOT 90  -63.612202055084     3.117E+00 6.080E-02 9.191E+03
 ETOT 91  -66.601096880624    -2.989E+00 6.171E-02 9.437E+03
 ETOT 92  -63.573293516554     3.028E+00 5.708E-02 9.222E+03
 ETOT 93  -66.722044832695    -3.149E+00 1.073E-01 8.978E+03
 ETOT 94  -63.480528006126     3.242E+00 5.780E-02 9.393E+03
 ETOT 95  -66.428481557398    -2.948E+00 6.182E-02 9.798E+03
 ETOT 96  -63.249861786717     3.179E+00 6.068E-02 9.744E+03
 ETOT 97  -66.674963751825    -3.425E+00 7.317E-02 9.028E+03
 ETOT 98  -64.186130570387     2.489E+00 5.945E-02 8.546E+03
 ETOT 99  -66.632698371651    -2.447E+00 4.879E-02 9.238E+03
 ETOT  100  -62.838080073787     3.795E+00 6.479E-02 1.033E+04
 ETOT  101  -66.421947678829    -3.584E+00 7.608E-02 9.660E+03
 ETOT  102  -63.992201990421     2.430E+00 7.111E-02 8.547E+03
 ETOT  103  -66.766376476284    -2.774E+00 6.740E-02 8.829E+03
 ETOT  104  -63.499250915679     3.267E+00 7.943E-02 9.423E+03
 ETOT  105  -66.524769801828    -3.026E+00 8.081E-02 9.419E+03
 ETOT  106  -62.823447852285     3.701E+00 6.209E-02 1.024E+04
 ETOT  107  -66.599970771043    -3.777E+00 6.812E-02 9.582E+03
 ETOT  108  -64.711834831558     1.888E+00 6.398E-02 7.590E+03
 ETOT  109  -66.863178482726    -2.151E+00 5.307E-02 8.450E+03
 ETOT  110  -62.694103702221     4.169E+00 5.808E-02 1.084E+04
 ETOT  111  -66.368676642058    -3.675E+00 8.587E-02 1.015E+04
 ETOT  112  -64.160823506941     2.208E+00 5.266E-02 8.316E+03
 ETOT  113  -66.939050172594    -2.778E+00 6.204E-02 8.279E+03
 ETOT  114  -63.118299193392     3.821E+00 5.635E-02 1.000E+04
 ETOT  115  -66.551706555160    -3.433E+00 7.831E-02 9.853E+03
 ETOT  116  -64.348040669952     2.204E+00 5.110E-02 8.137E+03
 ETOT  117  -67.061034241948    -2.713E+00 5.397E-02 7.932E+03
 ETOT  118  -63.460682797365     3.600E+00 5.176E-02 9.738E+03
 ETOT  119  -66.517209633671    -3.057E+00 5.705E-02 9.929E+03
 ETOT  120  -63.531710262818     2.985E+00 6.912E-02 9.278E+03
 ETOT  121  -66.782962272947    -3.251E+00 7.783E-02 8.561E+03
 ETOT  122  -64.056699258869     2.726E+00 5.914E-02 8.668E+03
 ETOT  123  -66.715277976027    -2.659E+00 8.939E-02 9.142E+03
 ETOT  124  -63.475022446953     3.240E+00 5.348E-02 9.417E+03
 ETOT  125  -66.686252625226    -3.211E+00 8.658E-02 8.922E+03
 ETOT  126  -63.894879929047     2.791E+00 5.884E-02 8.918E+03
 ETOT  127  -66.647014298816    -2.752E+00 8.503E-02 9.165E+03
 ETOT  128  -63.950505279717     2.697E+00 5.392E-02 8.856E+03
 ETOT  129  -66.725909229790    -2.775E+00 7.346E-02 8.690E+03
 ETOT  130  -63.164681346009     3.561E+00 6.617E-02 9.985E+03
 ETOT  131  -66.552449243381    -3.388E+00 6.180E-02 9.806E+03
 ETOT  132  -64.148937190619     2.404E+00 6.323E-02 8.384E+03
 ETOT  133  -66.843653134703    -2.695E+00 5.911E-02 8.482E+03
 ETOT  134  -62.925169275686     3.918E+00 5.963E-02 1.037E+04
 ETOT  135  -66.586540356495    -3.661E+00 5.937E-02 9.806E+03
 ETOT  136  -64.252871817987     2.334E+00 6.222E-02 8.097E+03
 ETOT  137  -66.872155188254    -2.619E+00 7.618E-02 8.185E+03
 ETOT  138  -63.406763975710     3.465E+00 6.325E-02 9.699E+03
 ETOT  139  -66.545589571610    -3.139E+00 7.583E-02 9.819E+03
 ETOT  140  -63.537281744092     3.008E+00 6.314E-02 9.342E+03
 ETOT  141  -66.627722807809    -3.090E+00 6.952E-02 8.743E+03
 ETOT  142  -63.816455497680     2.811E+00 8.138E-02 8.961E+03
 ETOT  143  -66.633922606047    -2.817E+00 6.305E-02 9.451E+03
 ETOT  144  -63.699580602029     2.934E+00 5.647E-02 9.168E+03
 ETOT  145  -66.727507900415    -3.028E+00 7.326E-02 8.807E+03
 ETOT  146  -63.528746934838     3.199E+00 4.683E-02 9.406E+03
 ETOT  147  -66.552707665282    -3.024E+00 5.856E-02 9.595E+03
 ETOT  148  -63.384113833425     3.169E+00 5.552E-02 9.600E+03
 ETOT  149  -66.782164917832    -3.398E+00 9.530E-02 8.799E+03
 ETOT  150  -64.679164986434     2.103E+00 7.235E-02 7.760E+03
 ETOT  151  -66.762433912384    -2.083E+00 5.168E-02 8.799E+03
 ETOT  152  -62.497318468204     4.265E+00 6.493E-02 1.105E+04
 ETOT  153  -66.337603730382    -3.840E+00 7.202E-02 1.029E+04
 ETOT  154  -64.086536386040     2.251E+00 5.845E-02 8.462E+03
 ETOT  155  -67.004900387300    -2.918E+00 1.087E-01 8.149E+03
 ETOT  156  -63.904633706987     3.100E+00 5.329E-02 8.896E+03
 ETOT  157  -66.736258048433    -2.832E+00 5.499E-02 9.199E+03
 ETOT  158  -63.784267680536     2.952E+00 6.204E-02 8.929E+03
 ETOT  159  -66.708651748473    -2.924E+00 7.096E-02 8.879E+03
 ETOT  160  -63.741821322169     2.967E+00 5.271E-02 9.092E+03
 ETOT  161  -66.734362055748    -2.993E+00 6.168E-02 9.085E+03
 ETOT  162  -63.860548553292     2.874E+00 6.289E-02 8.907E+03
 ETOT  163  -66.582568414414    -2.722E+00 7.255E-02 9.125E+03
 ETOT  164  -63.369637613275     3.213E+00 7.167E-02 9.608E+03
 ETOT  165  -66.743178587243    -3.374E+00 7.929E-02 8.979E+03
 ETOT  166  -64.287958420138     2.455E+00 5.239E-02 8.253E+03
 ETOT  167  -66.800876352773    -2.513E+00 4.958E-02 8.887E+03
 ETOT  168  -62.852330521693     3.949E+00 6.336E-02 1.039E+04
 ETOT  169  -66.469978305383    -3.618E+00 6.622E-02 9.903E+03
 ETOT  170  -64.026700196960     2.443E+00 6.220E-02 8.625E+03
 ETOT  171  -66.765870567821    -2.739E+00 7.121E-02 8.782E+03
 ETOT  172  -63.290800753420     3.475E+00 5.625E-02 9.789E+03
 ETOT  173  -66.473656566338    -3.183E+00 5.761E-02 9.849E+03
 ETOT  174  -63.455635300392     3.018E+00 5.805E-02 9.372E+03
 ETOT  175  -66.670534180254    -3.215E+00 7.351E-02 8.869E+03
 ETOT  176  -64.006156916891     2.664E+00 5.215E-02 8.781E+03
 ETOT  177  -66.828779756394    -2.823E+00 6.599E-02 9.003E+03
 ETOT  178  -63.422892480043     3.406E+00 5.957E-02 9.659E+03
 ETOT  179  -66.495153544603    -3.072E+00 6.756E-02 9.790E+03
 ETOT  180  -63.506083026494     2.989E+00 6.672E-02 9.354E+03
 ETOT  181  -66.645513809721    -3.139E+00 7.949E-02 8.945E+03
 ETOT  182  -63.580834750399     3.065E+00 5.837E-02 9.317E+03
 ETOT  183  -66.658152914042    -3.077E+00 5.670E-02 9.482E+03
 ETOT  184  -63.522130353615     3.136E+00 6.205E-02 9.254E+03
 ETOT  185  -66.672460262930    -3.150E+00 9.101E-02 8.891E+03
 ETOT  186  -64.048002118731     2.624E+00 5.916E-02 8.628E+03
 ETOT  187  -66.723964875409    -2.676E+00 6.273E-02 9.007E+03
 ETOT  188  -63.320583007518     3.403E+00 6.518E-02 9.592E+03
 ETOT  189  -66.520672532774    -3.200E+00 8.617E-02 9.425E+03
 ETOT  190  -63.777635584804     2.743E+00 6.237E-02 8.929E+03
 ETOT  191  -66.628203386136    -2.851E+00 5.459E-02 9.050E+03
 ETOT  192  -63.297955763530     3.330E+00 6.356E-02 9.700E+03
 ETOT  193  -66.740860823820    -3.443E+00 8.648E-02 9.082E+03
 ETOT  194  -64.141829127552     2.599E+00 6.274E-02 8.472E+03
 ETOT  195  -66.774538271269    -2.633E+00 6.386E-02 8.938E+03
 ETOT  196  -63.493877289188     3.281E+00 5.570E-02 9.381E+03
 ETOT  197  -66.536133187805    -3.042E+00 5.934E-02 9.326E+03
 ETOT  198  -63.135079925600     3.401E+00 6.627E-02 9.983E+03
 ETOT  199  -66.559666517407    -3.425E+00 7.367E-02 9.736E+03
 ETOT  200  -63.857769918794     2.702E+00 5.897E-02 8.775E+03

 Cartesian components of stress tensor (hartree/bohr^3)
  sigma(1 1)=  5.15825292E-03  sigma(3 2)=  0.00000000E+00
  sigma(2 2)=  5.15825292E-03  sigma(3 1)=  0.00000000E+00
  sigma(3 3)=  1.00295145E-02  sigma(2 1)=  0.00000000E+00
 

 scprqt:  WARNING -
  nstep=  200 was not enough SCF cycles to converge;
  maximum energy difference=  2.702E+00 exceeds toldfe=  1.000E-09


---OUTPUT-----------------------------------------------------------------------

 Cartesian coordinates (xcart) [bohr]
  0.00000000000000E+00  0.00000000000000E+00  0.00000000000000E+00
  3.74165774311357E+00  3.74165774311357E+00  3.33825301291695E+00
  0.00000000000000E+00  3.74165774311357E+00  4.65794322987672E+00
  3.74165774311357E+00  0.00000000000000E+00  4.65794322987672E+00
  3.74165774311357E+00  3.74165774311357E+00 -5.76678145471196E-01
 Reduced coordinates (xred)
  0.00000000000000E+00  0.00000000000000E+00  0.00000000000000E+00
  5.00000000000000E-01  5.00000000000000E-01  4.41631852735637E-01
  0.00000000000000E+00  5.00000000000000E-01  6.16219349039213E-01
  5.00000000000000E-01  0.00000000000000E+00  6.16219349039213E-01
  5.00000000000000E-01  5.00000000000000E-01 -7.62912328188263E-02
 Cartesian forces (fcart) [Ha/bohr]; max,rms= 2.62208E-01 8.75463E-02 (free atoms)
  0.00000000000000E+00  0.00000000000000E+00  6.02966241892426E-02
  0.00000000000000E+00  0.00000000000000E+00 -2.62208203263448E-01
  0.00000000000000E+00  0.00000000000000E+00  2.72420205843198E-02
  0.00000000000000E+00  0.00000000000000E+00  2.72420205843198E-02
  0.00000000000000E+00  0.00000000000000E+00  1.47427537905565E-01
 Reduced forces (fred)
  0.00000000000000E+00  0.00000000000000E+00 -7.80648069025265E-02
  0.00000000000000E+00  0.00000000000000E+00  2.35971839477397E+00
  0.00000000000000E+00  0.00000000000000E+00  1.71791786075068E-01
  0.00000000000000E+00  0.00000000000000E+00  1.71791786075068E-01
  0.00000000000000E+00  0.00000000000000E+00 -7.36679065430283E-01
 Total energy (etotal) [Ha]= -6.38577699187937E+01

 Difference of energy with previous step (new-old):
           Absolute (Ha)= 1.72502E-01
           Relative     = 2.69770E-03

--- Iteration: ( 6/15) Internal Cycle: (1/1)
--------------------------------------------------------------------------------

---SELF-CONSISTENT-FIELD CONVERGENCE--------------------------------------------

     iter   Etot(hartree)      deltaE(h)  residm     vres2
 ETOT  1  -58.600352741777    -5.860E+01 3.368E-02 2.696E+04
 ETOT  2  -59.199894915753    -5.995E-01 8.012E-03 1.518E+04
 ETOT  3  -66.568898289285    -7.369E+00 8.925E-02 1.008E+04
 ETOT  4  -65.210567209986     1.358E+00 5.986E-02 7.213E+03
 ETOT  5  -67.595673693101    -2.385E+00 7.199E-02 5.651E+03
 ETOT  6  -63.683238470910     3.912E+00 5.597E-02 7.660E+03
 ETOT  7  -66.742081238018    -3.059E+00 6.748E-02 7.827E+03
 ETOT  8  -63.796569161589     2.946E+00 7.745E-02 7.987E+03
 ETOT  9  -67.180068445797    -3.383E+00 7.769E-02 6.502E+03
 ETOT 10  -64.403027380338     2.777E+00 5.570E-02 6.614E+03
 ETOT 11  -66.980003101867    -2.577E+00 4.917E-02 7.269E+03
 ETOT 12  -64.057336475902     2.923E+00 6.065E-02 7.358E+03
 ETOT 13  -66.929861061359    -2.873E+00 9.594E-02 6.981E+03
 ETOT 14  -63.574906215687     3.355E+00 7.013E-02 7.652E+03
 ETOT 15  -67.035142883254    -3.460E+00 6.246E-02 7.150E+03
 ETOT 16  -64.620574051228     2.415E+00 6.070E-02 6.326E+03
 ETOT 17  -67.102343070133    -2.482E+00 7.855E-02 6.796E+03
 ETOT 18  -64.148614238511     2.954E+00 6.616E-02 7.044E+03
 ETOT 19  -66.959569093579    -2.811E+00 7.381E-02 7.053E+03
 ETOT 20  -63.669385208300     3.290E+00 6.909E-02 7.503E+03
 ETOT 21  -66.845208016843    -3.176E+00 6.270E-02 7.421E+03
 ETOT 22  -64.132203808784     2.713E+00 6.368E-02 7.041E+03
 ETOT 23  -67.102644165002    -2.970E+00 9.342E-02 6.860E+03
 ETOT 24  -64.050350587639     3.052E+00 6.689E-02 7.105E+03
 ETOT 25  -66.917483035208    -2.867E+00 8.952E-02 7.281E+03
 ETOT 26  -63.827272182451     3.090E+00 7.161E-02 7.377E+03
 ETOT 27  -66.992000610623    -3.165E+00 6.253E-02 7.161E+03
 ETOT 28  -64.411140159864     2.581E+00 6.908E-02 6.693E+03
 ETOT 29  -66.987584134237    -2.576E+00 5.972E-02 6.979E+03
 ETOT 30  -64.079356719430     2.908E+00 6.586E-02 7.109E+03
 ETOT 31  -67.113522133634    -3.034E+00 5.621E-02 6.832E+03
 ETOT 32  -63.870726654349     3.243E+00 8.067E-02 7.305E+03
 ETOT 33  -67.026825510228    -3.156E+00 9.727E-02 7.130E+03
 ETOT 34  -65.059735101701     1.967E+00 6.246E-02 5.939E+03
 ETOT 35  -67.295089656398    -2.235E+00 5.172E-02 6.401E+03
 ETOT 36  -63.023570893539     4.272E+00 6.455E-02 8.348E+03
 ETOT 37  -66.874183753542    -3.851E+00 1.113E-01 7.620E+03
 ETOT 38  -65.136047857293     1.738E+00 5.913E-02 5.751E+03
 ETOT 39  -67.270459010207    -2.134E+00 5.674E-02 6.302E+03
 ETOT 40  -63.632365862561     3.638E+00 7.748E-02 7.695E+03
 ETOT 41  -66.878689002959    -3.246E+00 8.673E-02 7.266E+03
 ETOT 42  -64.972280167645     1.906E+00 6.899E-02 6.067E+03
 ETOT 43  -67.292003260431    -2.320E+00 5.543E-02 6.382E+03
 ETOT 44  -63.842504224210     3.449E+00 6.672E-02 7.402E+03
 ETOT 45  -66.868020100096    -3.026E+00 6.772E-02 7.296E+03
 ETOT 46  -64.245023906303     2.623E+00 5.494E-02 6.896E+03
 ETOT 47  -66.996599029420    -2.752E+00 6.505E-02 6.961E+03
 ETOT 48  -63.963098079301     3.034E+00 6.212E-02 7.299E+03
 ETOT 49  -66.956184461654    -2.993E+00 7.388E-02 7.148E+03
 ETOT 50  -63.752539186272     3.204E+00 6.357E-02 7.464E+03
 ETOT 51  -67.012368758214    -3.260E+00 9.996E-02 7.177E+03
 ETOT 52  -64.831626491650     2.181E+00 6.335E-02 6.226E+03
 ETOT 53  -67.263724761951    -2.432E+00 5.114E-02 6.368E+03
 ETOT 54  -63.773082546114     3.491E+00 5.740E-02 7.371E+03
 ETOT 55  -66.901921130649    -3.129E+00 8.502E-02 7.372E+03
 ETOT 56  -64.382265146753     2.520E+00 7.212E-02 6.821E+03
 ETOT 57  -67.207746071062    -2.825E+00 6.432E-02 6.664E+03
 ETOT 58  -63.839350240742     3.368E+00 6.362E-02 7.282E+03
 ETOT 59  -67.042838171412    -3.203E+00 6.996E-02 7.182E+03
 ETOT 60  -64.559325819606     2.484E+00 6.529E-02 6.477E+03
 ETOT 61  -67.231740011297    -2.672E+00 7.696E-02 6.577E+03
 ETOT 62  -63.995756453514     3.236E+00 6.188E-02 7.213E+03
 ETOT 63  -66.957371271841    -2.962E+00 5.471E-02 7.346E+03
 ETOT 64  -63.826636003907     3.131E+00 5.834E-02 7.470E+03
 ETOT 65  -67.122831588044    -3.296E+00 7.458E-02 6.815E+03
 ETOT 66  -64.610853117837     2.512E+00 7.285E-02 6.402E+03
 ETOT 67  -67.104739446425    -2.494E+00 8.351E-02 6.830E+03
 ETOT 68  -64.542351510124     2.562E+00 6.963E-02 6.773E+03
 ETOT 69  -67.120900147369    -2.579E+00 6.998E-02 6.581E+03
 ETOT 70  -63.643020105957     3.478E+00 6.184E-02 7.611E+03
 ETOT 71  -66.880966442799    -3.238E+00 5.922E-02 7.505E+03
 ETOT 72  -64.373328104059     2.508E+00 7.146E-02 6.717E+03
 ETOT 73  -67.086592779479    -2.713E+00 6.352E-02 6.752E+03
 ETOT 74  -63.540787205738     3.546E+00 6.419E-02 7.715E+03
 ETOT 75  -66.935496717016    -3.395E+00 1.081E-01 7.388E+03
 ETOT 76  -64.723656402262     2.212E+00 6.787E-02 6.354E+03
 ETOT 77  -67.306223772964    -2.583E+00 1.073E-01 6.276E+03
 ETOT 78  -64.452284140927     2.854E+00 7.001E-02 6.673E+03
 ETOT 79  -66.913942372536    -2.462E+00 4.993E-02 7.199E+03
 ETOT 80  -63.000363006486     3.914E+00 7.024E-02 8.559E+03
 ETOT 81  -66.932214638315    -3.932E+00 7.084E-02 7.394E+03
 ETOT 82  -65.231960619085     1.700E+00 5.773E-02 5.708E+03
 ETOT 83  -67.298150929748    -2.066E+00 9.095E-02 6.484E+03
 ETOT 84  -63.278430352851     4.020E+00 7.006E-02 8.064E+03
 ETOT 85  -66.760022758361    -3.482E+00 7.707E-02 7.601E+03
 ETOT 86  -64.688140561160     2.072E+00 6.299E-02 6.522E+03
 ETOT 87  -67.114379822462    -2.426E+00 7.483E-02 6.412E+03
 ETOT 88  -64.049959669338     3.064E+00 6.090E-02 7.126E+03
 ETOT 89  -66.977172071155    -2.927E+00 6.157E-02 7.098E+03
 ETOT 90  -63.815049214983     3.162E+00 5.895E-02 7.364E+03
 ETOT 91  -66.995022737504    -3.180E+00 8.127E-02 7.140E+03
 ETOT 92  -64.662652488350     2.332E+00 6.541E-02 6.400E+03
 ETOT 93  -67.116614803200    -2.454E+00 6.248E-02 6.625E+03
 ETOT 94  -63.950538640192     3.166E+00 6.447E-02 7.312E+03
 ETOT 95  -66.960132635187    -3.010E+00 5.418E-02 7.238E+03
 ETOT 96  -63.911784133879     3.048E+00 7.080E-02 7.307E+03
 ETOT 97  -66.960794730215    -3.049E+00 7.564E-02 7.056E+03
 ETOT 98  -64.316418480860     2.644E+00 6.647E-02 6.823E+03
 ETOT 99  -67.144468099232    -2.828E+00 7.654E-02 6.863E+03
 ETOT  100  -64.267484675861     2.877E+00 5.506E-02 6.864E+03
 ETOT  101  -66.828469176140    -2.561E+00 7.554E-02 7.172E+03
 ETOT  102  -63.904932691646     2.924E+00 6.426E-02 7.401E+03
 ETOT  103  -66.977851227663    -3.073E+00 5.815E-02 7.148E+03
 ETOT  104  -63.847612831701     3.130E+00 5.963E-02 7.287E+03
 ETOT  105  -66.804686139625    -2.957E+00 6.454E-02 7.489E+03
 ETOT  106  -63.827227702320     2.977E+00 6.123E-02 7.468E+03
 ETOT  107  -66.985397031154    -3.158E+00 6.731E-02 7.042E+03
 ETOT  108  -64.301227693827     2.684E+00 7.795E-02 6.756E+03
 ETOT  109  -67.005935119492    -2.705E+00 6.028E-02 7.084E+03
 ETOT  110  -63.489940030731     3.516E+00 6.375E-02 7.859E+03
 ETOT  111  -67.110699946857    -3.621E+00 8.682E-02 6.981E+03
 ETOT  112  -65.178349894903     1.932E+00 5.627E-02 5.712E+03
 ETOT  113  -67.257882828537    -2.080E+00 6.314E-02 6.516E+03
 ETOT  114  -63.207282365282     4.051E+00 7.755E-02 8.108E+03
 ETOT  115  -66.845096597778    -3.638E+00 6.854E-02 7.582E+03
 ETOT  116  -64.362082337891     2.483E+00 5.654E-02 6.739E+03
 ETOT  117  -67.233732916250    -2.872E+00 6.774E-02 6.592E+03
 ETOT  118  -64.728700292307     2.505E+00 5.498E-02 6.381E+03
 ETOT  119  -67.014445854518    -2.286E+00 4.926E-02 7.073E+03
 ETOT  120  -63.142878393865     3.872E+00 6.831E-02 8.323E+03
 ETOT  121  -66.768877306155    -3.626E+00 6.631E-02 7.648E+03
 ETOT  122  -64.239664720521     2.529E+00 7.649E-02 6.866E+03
 ETOT  123  -67.053108169887    -2.813E+00 6.500E-02 6.960E+03
 ETOT  124  -64.063651149475     2.989E+00 6.349E-02 7.114E+03
 ETOT  125  -66.968629466539    -2.905E+00 7.171E-02 7.195E+03
 ETOT  126  -64.209602045708     2.759E+00 5.532E-02 7.011E+03
 ETOT  127  -67.191177013829    -2.982E+00 5.497E-02 6.713E+03
