TACC: Starting up job 1562130
TACC: Setting up parallel environment for MVAPICH2+mpispawn.
TACC: Starting parallel tasks...
 PAPI Version 84017152
 Number of hardware counters: 11
 Number of CPUs in an SMP Node: 8
 Number of nodes in the entire system: 2
 Total number of CPUs in the entire system: 16
 Model string of CPU: Intel(R) Xeon(R) CPU E5-2680 0 @ 2.70GHz
  ABINIT 
  
  Give name for formatted input file: 
tbase3_5.in
  Give name for formatted output file:
tbase3_5.out
  Give root name for generic input files:
in_tbase3
  Give root name for generic output files:
out_tbase3
  Give root name for generic temporary files:
tmp_tbase3
 leave_test : synchronization done...

.Version 7.2.2 of ABINIT 
.(MPI version, prepared for a x86_64_linux_intel13.1 computer) 

.Copyright (C) 1998-2013 ABINIT group . 
 ABINIT comes with ABSOLUTELY NO WARRANTY.
 It is free software, and you are welcome to redistribute it
 under certain conditions (GNU General Public License,
 see ~abinit/COPYING or http://www.gnu.org/copyleft/gpl.txt).

 ABINIT is a project of the Universite Catholique de Louvain,
 Corning Inc. and other collaborators, see ~abinit/doc/developers/contributors.txt .
 Please read ~abinit/doc/users/acknowledgments.html for suggested
 acknowledgments of the ABINIT effort.
 For more information, see http://www.abinit.org .

.Starting date : Thu 22 Aug 2013.
- ( at 17h05 )
  
 
 ++++++++++++++++++++++++++++++++++++++++++++++++++++++++++++++++++++++++++++++
 
 === Build Information === 
  Version       : 7.2.2
  Build target  : x86_64_linux_intel13.1
  Build date    : 20130815
 
 === Compiler Suite === 
  C compiler       : intel13.1
  CFLAGS           :   -O3 -vec-report0
  C++ compiler     : gnu13.1
  CXXFLAGS         : -m64  -O3 -mtune=native -march=native
  Fortran compiler : intel13.1
  FCFLAGS          :   -extend-source -vec-report0 -noaltparam -nofpscomp  -openmp
  FC_LDFLAGS       :    -static-intel -static-libgcc
 
 === Optimizations === 
  Debug level        : no
  Optimization level : aggressive
  Architecture       : intel_xeon
 
 === MPI === 
  Parallel build : yes
  Parallel I/O   : yes
  Time tracing   : no
  GPU support    : no
 
 === Connectors / Fallbacks === 
  Connectors on : yes
  Fallbacks on  : yes
  DFT flavor    : libxc-fallback+wannier90-fallback
  FFT flavor    : fftw3-mpi
  LINALG flavor : mkl+scalapack
  MATH flavor   : gsl
  TIMER flavor  : papi
  TRIO flavor   : netcdf
 
 === Experimental features === 
  Bindings            : no
  Exports             : no
  GW double-precision : no
 
 ++++++++++++++++++++++++++++++++++++++++++++++++++++++++++++++++++++++++++++++
 

 ++++++++++++++++++++++++++++++++++++++++++++++++++++++++++++++++++++++++++++++
 Default optimizations:
   -O3 -xHOST


 ++++++++++++++++++++++++++++++++++++++++++++++++++++++++++++++++++++++++++++++


 ++++++++++++++++++++++++++++++++++++++++++++++++++++++++++++++++++++++++++++++
 CPP options activated during the build:

                  CC_INTEL                   CXX_GNU                  FC_INTEL

               HAVE_CCLOCK            HAVE_DFT_LIBXC        HAVE_DFT_WANNIER90

 HAVE_FC_ALLOCATABLE_DT...        HAVE_FC_CONTIGUOUS           HAVE_FC_CPUTIME

             HAVE_FC_ETIME              HAVE_FC_EXIT             HAVE_FC_FLUSH

             HAVE_FC_GAMMA            HAVE_FC_GETENV            HAVE_FC_GETPID

             HAVE_FC_IOMSG     HAVE_FC_ISO_C_BINDING        HAVE_FC_LONG_LINES

              HAVE_FC_NULL         HAVE_FC_STREAM_IO                  HAVE_FFT

            HAVE_FFT_FFTW3        HAVE_FFT_FFTW3_MPI    HAVE_FFT_FFTW3_THREADS

              HAVE_FFT_MPI           HAVE_FFT_SERIAL               HAVE_LINALG

         HAVE_LINALG_AXPBY        HAVE_LINALG_GEMM3M  HAVE_LINALG_MKL_IMATCOPY

   HAVE_LINALG_MKL_OMATADD  HAVE_LINALG_MKL_OMATCOPY           HAVE_LINALG_MPI

     HAVE_LINALG_SCALAPACK        HAVE_LINALG_SERIAL                 HAVE_MATH

             HAVE_MATH_GSL          HAVE_MATH_SERIAL                  HAVE_MPI

                 HAVE_MPI2               HAVE_MPI_IO HAVE_MPI_TYPE_CREATE_S...

         HAVE_OMP_COLLAPSE             HAVE_OS_LINUX                HAVE_TIMER

           HAVE_TIMER_PAPI         HAVE_TIMER_SERIAL          HAVE_TRIO_NETCDF

 ++++++++++++++++++++++++++++++++++++++++++++++++++++++++++++++++++++++++++++++

- input  file    -> tbase3_5.in
- output file    -> tbase3_5.out
- root for input  files -> in_tbase3
- root for output files -> out_tbase3

-instrng :    84 lines of input have been read from file tbase3_5.in


 iofn2 : Please give name of formatted atomic psp file
 iofn2 : for atom type   1 , psp file is /work/02288/mgs763/abinit-7.2.2_src/tests/Psps_for_tests/14si.pspnc
  read the values zionpsp=  4.0 , pspcod=   1 , lmax=   2

 inpspheads : deduce mpsang  =   3, n1xccc  =2501.
 leave_test : synchronization done...

 invars1m : enter jdtset=     1
 invars1 : treat image number     1

 symlatt : the Bravais lattice is cF (face-centered cubic)
  xred   is defined in input file
 ingeo : takes atomic coordinates from input array xred

 symlatt : the Bravais lattice is cF (face-centered cubic)

 symlatt : the Bravais lattice is cF (face-centered cubic)
 symspgr : the symmetry operation no.   1 is the identity
 symspgr : the symmetry operation no.   2 is an inversion
 symaxes : the symmetry operation no.   3 is a 2-axis
 symplanes : the symmetry operation no.   4 is a d plane
 symaxes : the symmetry operation no.   5 is a 2-axis
 symplanes : the symmetry operation no.   6 is a d plane
 symaxes : the symmetry operation no.   7 is a 2-axis
 symplanes : the symmetry operation no.   8 is a d plane
 symplanes : the symmetry operation no.   9 is a mirror plane
 symaxes : the symmetry operation no.  10 is a 2_1-axis
 symspgr : the symmetry operation no.  11 is a -4 axis
 symaxes : the symmetry operation no.  12 is a 4_1 or 4_3-axis
 symplanes : the symmetry operation no.  13 is a mirror plane
 symaxes : the symmetry operation no.  14 is a 2-axis
 symspgr : the symmetry operation no.  15 is a -4 axis
 symaxes : the symmetry operation no.  16 is a 4_1 or 4_3-axis
 symaxes : the symmetry operation no.  17 is a 3-axis
 symspgr : the symmetry operation no.  18 is a -3 axis
 symaxes : the symmetry operation no.  19 is a 3-axis
 symspgr : the symmetry operation no.  20 is a -3 axis
 symaxes : the symmetry operation no.  21 is a 3-axis
 symspgr : the symmetry operation no.  22 is a -3 axis
 symaxes : the symmetry operation no.  23 is a 3-axis
 symspgr : the symmetry operation no.  24 is a -3 axis
 symplanes : the symmetry operation no.  25 is a mirror plane
 symaxes : the symmetry operation no.  26 is a 2_1-axis
 symspgr : the symmetry operation no.  27 is a -4 axis
 symaxes : the symmetry operation no.  28 is a 4_1 or 4_3-axis
 symspgr : the symmetry operation no.  29 is a -4 axis
 symaxes : the symmetry operation no.  30 is a 4_1 or 4_3-axis
 symplanes : the symmetry operation no.  31 is a mirror plane
 symaxes : the symmetry operation no.  32 is a 2-axis
 symaxes : the symmetry operation no.  33 is a 3-axis
 symspgr : the symmetry operation no.  34 is a -3 axis
 symaxes : the symmetry operation no.  35 is a 3-axis
 symspgr : the symmetry operation no.  36 is a -3 axis
 symaxes : the symmetry operation no.  37 is a 3-axis
 symspgr : the symmetry operation no.  38 is a -3 axis
 symaxes : the symmetry operation no.  39 is a 3-axis
 symspgr : the symmetry operation no.  40 is a -3 axis
 symplanes : the symmetry operation no.  41 is a mirror plane
 symaxes : the symmetry operation no.  42 is a 2-axis
 symplanes : the symmetry operation no.  43 is a mirror plane
 symaxes : the symmetry operation no.  44 is a 2_1-axis
 symspgr : the symmetry operation no.  45 is a -4 axis
 symaxes : the symmetry operation no.  46 is a 4_1 or 4_3-axis
 symspgr : the symmetry operation no.  47 is a -4 axis
 symaxes : the symmetry operation no.  48 is a 4_1 or 4_3-axis
 symspgr : the symmetry operation no.  49 is a pure translation
 symspgr : the symmetry operation no.  50 is an inversion
 symaxes : the symmetry operation no.  51 is a 2_1-axis
 symplanes : the symmetry operation no.  52 is a d plane
 symaxes : the symmetry operation no.  53 is a 2_1-axis
 symplanes : the symmetry operation no.  54 is a d plane
 symaxes : the symmetry operation no.  55 is a 2-axis
 symplanes : the symmetry operation no.  56 is a d plane
 symplanes : the symmetry operation no.  57 is a tertiary m plane
 symaxes : the symmetry operation no.  58 is a 2-axis
 symspgr : the symmetry operation no.  59 is a -4 axis
 symaxes : the symmetry operation no.  60 is a 4_1 or 4_3-axis
 symplanes : the symmetry operation no.  61 is a tertiary m plane
 symaxes : the symmetry operation no.  62 is a 2_1-axis
 symspgr : the symmetry operation no.  63 is a -4 axis
 symaxes : the symmetry operation no.  64 is a 4_1 or 4_3-axis
 symaxes : the symmetry operation no.  65 is a 3, 3_1 or 3_2 axis
 symspgr : the symmetry operation no.  66 is a -3 axis
 symaxes : the symmetry operation no.  67 is a 3-axis
 symspgr : the symmetry operation no.  68 is a -3 axis
 symaxes : the symmetry operation no.  69 is a 3, 3_1 or 3_2 axis
 symspgr : the symmetry operation no.  70 is a -3 axis
 symaxes : the symmetry operation no.  71 is a 3-axis
 symspgr : the symmetry operation no.  72 is a -3 axis
 symplanes : the symmetry operation no.  73 is a tertiary m plane
 symaxes : the symmetry operation no.  74 is a 2_1-axis
 symspgr : the symmetry operation no.  75 is a -4 axis
 symaxes : the symmetry operation no.  76 is a 4_1 or 4_3-axis
 symspgr : the symmetry operation no.  77 is a -4 axis
 symaxes : the symmetry operation no.  78 is a 4_1 or 4_3-axis
 symplanes : the symmetry operation no.  79 is a mirror plane
 symaxes : the symmetry operation no.  80 is a 2-axis
 symaxes : the symmetry operation no.  81 is a 3, 3_1 or 3_2 axis
 symspgr : the symmetry operation no.  82 is a -3 axis
 symaxes : the symmetry operation no.  83 is a 3, 3_1 or 3_2 axis
 symspgr : the symmetry operation no.  84 is a -3 axis
 symaxes : the symmetry operation no.  85 is a 3-axis
 symspgr : the symmetry operation no.  86 is a -3 axis
 symaxes : the symmetry operation no.  87 is a 3-axis
 symspgr : the symmetry operation no.  88 is a -3 axis
 symplanes : the symmetry operation no.  89 is a tertiary m plane
 symaxes : the symmetry operation no.  90 is a 2_1-axis
 symplanes : the symmetry operation no.  91 is a tertiary m plane
 symaxes : the symmetry operation no.  92 is a 2-axis
 symspgr : the symmetry operation no.  93 is a -4 axis
 symaxes : the symmetry operation no.  94 is a 4_1 or 4_3-axis
 symspgr : the symmetry operation no.  95 is a -4 axis
 symaxes : the symmetry operation no.  96 is a 4_1 or 4_3-axis
 symspgr : the symmetry operation no.  97 is a pure translation
 symspgr : the symmetry operation no.  98 is an inversion
 symaxes : the symmetry operation no.  99 is a 2-axis
 symplanes : the symmetry operation no. 100 is a d plane
 symaxes : the symmetry operation no. 101 is a 2_1-axis
 symplanes : the symmetry operation no. 102 is a d plane
 symaxes : the symmetry operation no. 103 is a 2_1-axis
 symplanes : the symmetry operation no. 104 is a d plane
 symplanes : the symmetry operation no. 105 is a tertiary m plane
 symaxes : the symmetry operation no. 106 is a 2-axis
 symspgr : the symmetry operation no. 107 is a -4 axis
 symaxes : the symmetry operation no. 108 is a 4_1 or 4_3-axis
 symplanes : the symmetry operation no. 109 is a tertiary m plane
 symaxes : the symmetry operation no. 110 is a 2_1-axis
 symspgr : the symmetry operation no. 111 is a -4 axis
 symaxes : the symmetry operation no. 112 is a 4_1 or 4_3-axis
 symaxes : the symmetry operation no. 113 is a 3, 3_1 or 3_2 axis
 symspgr : the symmetry operation no. 114 is a -3 axis
 symaxes : the symmetry operation no. 115 is a 3-axis
 symspgr : the symmetry operation no. 116 is a -3 axis
 symaxes : the symmetry operation no. 117 is a 3-axis
 symspgr : the symmetry operation no. 118 is a -3 axis
 symaxes : the symmetry operation no. 119 is a 3, 3_1 or 3_2 axis
 symspgr : the symmetry operation no. 120 is a -3 axis
 symplanes : the symmetry operation no. 121 is a tertiary m plane
 symaxes : the symmetry operation no. 122 is a 2-axis
 symspgr : the symmetry operation no. 123 is a -4 axis
 symaxes : the symmetry operation no. 124 is a 4_1 or 4_3-axis
 symspgr : the symmetry operation no. 125 is a -4 axis
 symaxes : the symmetry operation no. 126 is a 4_1 or 4_3-axis
 symplanes : the symmetry operation no. 127 is a tertiary m plane
 symaxes : the symmetry operation no. 128 is a 2_1-axis
 symaxes : the symmetry operation no. 129 is a 3, 3_1 or 3_2 axis
 symspgr : the symmetry operation no. 130 is a -3 axis
 symaxes : the symmetry operation no. 131 is a 3-axis
 symspgr : the symmetry operation no. 132 is a -3 axis
 symaxes : the symmetry operation no. 133 is a 3, 3_1 or 3_2 axis
 symspgr : the symmetry operation no. 134 is a -3 axis
 symaxes : the symmetry operation no. 135 is a 3-axis
 symspgr : the symmetry operation no. 136 is a -3 axis
 symplanes : the symmetry operation no. 137 is a tertiary m plane
 symaxes : the symmetry operation no. 138 is a 2-axis
 symplanes : the symmetry operation no. 139 is a mirror plane
 symaxes : the symmetry operation no. 140 is a 2_1-axis
 symspgr : the symmetry operation no. 141 is a -4 axis
 symaxes : the symmetry operation no. 142 is a 4_1 or 4_3-axis
 symspgr : the symmetry operation no. 143 is a -4 axis
 symaxes : the symmetry operation no. 144 is a 4_1 or 4_3-axis
 symspgr : the symmetry operation no. 145 is a pure translation
 symspgr : the symmetry operation no. 146 is an inversion
 symaxes : the symmetry operation no. 147 is a 2_1-axis
 symplanes : the symmetry operation no. 148 is a d plane
 symaxes : the symmetry operation no. 149 is a 2-axis
 symplanes : the symmetry operation no. 150 is a d plane
 symaxes : the symmetry operation no. 151 is a 2_1-axis
 symplanes : the symmetry operation no. 152 is a d plane
 symplanes : the symmetry operation no. 153 is a tertiary m plane
 symaxes : the symmetry operation no. 154 is a 2_1-axis
 symspgr : the symmetry operation no. 155 is a -4 axis
 symaxes : the symmetry operation no. 156 is a 4_1 or 4_3-axis
 symplanes : the symmetry operation no. 157 is a mirror plane
 symaxes : the symmetry operation no. 158 is a 2-axis
 symspgr : the symmetry operation no. 159 is a -4 axis
 symaxes : the symmetry operation no. 160 is a 4_1 or 4_3-axis
 symaxes : the symmetry operation no. 161 is a 3, 3_1 or 3_2 axis
 symspgr : the symmetry operation no. 162 is a -3 axis
 symaxes : the symmetry operation no. 163 is a 3, 3_1 or 3_2 axis
 symspgr : the symmetry operation no. 164 is a -3 axis
 symaxes : the symmetry operation no. 165 is a 3-axis
 symspgr : the symmetry operation no. 166 is a -3 axis
 symaxes : the symmetry operation no. 167 is a 3-axis
 symspgr : the symmetry operation no. 168 is a -3 axis
 symplanes : the symmetry operation no. 169 is a tertiary m plane
 symaxes : the symmetry operation no. 170 is a 2-axis
 symspgr : the symmetry operation no. 171 is a -4 axis
 symaxes : the symmetry operation no. 172 is a 4_1 or 4_3-axis
 symspgr : the symmetry operation no. 173 is a -4 axis
 symaxes : the symmetry operation no. 174 is a 4_1 or 4_3-axis
 symplanes : the symmetry operation no. 175 is a tertiary m plane
 symaxes : the symmetry operation no. 176 is a 2_1-axis
 symaxes : the symmetry operation no. 177 is a 3, 3_1 or 3_2 axis
 symspgr : the symmetry operation no. 178 is a -3 axis
 symaxes : the symmetry operation no. 179 is a 3-axis
 symspgr : the symmetry operation no. 180 is a -3 axis
 symaxes : the symmetry operation no. 181 is a 3-axis
 symspgr : the symmetry operation no. 182 is a -3 axis
 symaxes : the symmetry operation no. 183 is a 3, 3_1 or 3_2 axis
 symspgr : the symmetry operation no. 184 is a -3 axis
 symplanes : the symmetry operation no. 185 is a tertiary m plane
 symaxes : the symmetry operation no. 186 is a 2_1-axis
 symplanes : the symmetry operation no. 187 is a tertiary m plane
 symaxes : the symmetry operation no. 188 is a 2-axis
 symspgr : the symmetry operation no. 189 is a -4 axis
 symaxes : the symmetry operation no. 190 is a 4_1 or 4_3-axis
 symspgr : the symmetry operation no. 191 is a -4 axis
 symaxes : the symmetry operation no. 192 is a 4_1 or 4_3-axis
 symspgr : spgroup= 227  Fd -3 m   (=Oh^7)
 getkgrid : length of smallest supercell vector (bohr)=    1.634560E+02
       Simple Lattice Grid
 symkpt : found identity, with number  1

 invars1m : enter jdtset=     2
 invars1 : treat image number     1

 symlatt : the Bravais lattice is cF (face-centered cubic)
  xred   is defined in input file
 ingeo : takes atomic coordinates from input array xred

 symlatt : the Bravais lattice is cF (face-centered cubic)

 symlatt : the Bravais lattice is cF (face-centered cubic)
 symspgr : the symmetry operation no.   1 is the identity
 symspgr : the symmetry operation no.   2 is an inversion
 symaxes : the symmetry operation no.   3 is a 2-axis
 symplanes : the symmetry operation no.   4 is a d plane
 symaxes : the symmetry operation no.   5 is a 2-axis
 symplanes : the symmetry operation no.   6 is a d plane
 symaxes : the symmetry operation no.   7 is a 2-axis
 symplanes : the symmetry operation no.   8 is a d plane
 symplanes : the symmetry operation no.   9 is a mirror plane
 symaxes : the symmetry operation no.  10 is a 2_1-axis
 symspgr : the symmetry operation no.  11 is a -4 axis
 symaxes : the symmetry operation no.  12 is a 4_1 or 4_3-axis
 symplanes : the symmetry operation no.  13 is a mirror plane
 symaxes : the symmetry operation no.  14 is a 2-axis
 symspgr : the symmetry operation no.  15 is a -4 axis
 symaxes : the symmetry operation no.  16 is a 4_1 or 4_3-axis
 symaxes : the symmetry operation no.  17 is a 3-axis
 symspgr : the symmetry operation no.  18 is a -3 axis
 symaxes : the symmetry operation no.  19 is a 3-axis
 symspgr : the symmetry operation no.  20 is a -3 axis
 symaxes : the symmetry operation no.  21 is a 3-axis
 symspgr : the symmetry operation no.  22 is a -3 axis
 symaxes : the symmetry operation no.  23 is a 3-axis
 symspgr : the symmetry operation no.  24 is a -3 axis
 symplanes : the symmetry operation no.  25 is a mirror plane
 symaxes : the symmetry operation no.  26 is a 2_1-axis
 symspgr : the symmetry operation no.  27 is a -4 axis
 symaxes : the symmetry operation no.  28 is a 4_1 or 4_3-axis
 symspgr : the symmetry operation no.  29 is a -4 axis
 symaxes : the symmetry operation no.  30 is a 4_1 or 4_3-axis
 symplanes : the symmetry operation no.  31 is a mirror plane
 symaxes : the symmetry operation no.  32 is a 2-axis
 symaxes : the symmetry operation no.  33 is a 3-axis
 symspgr : the symmetry operation no.  34 is a -3 axis
 symaxes : the symmetry operation no.  35 is a 3-axis
 symspgr : the symmetry operation no.  36 is a -3 axis
 symaxes : the symmetry operation no.  37 is a 3-axis
 symspgr : the symmetry operation no.  38 is a -3 axis
 symaxes : the symmetry operation no.  39 is a 3-axis
 symspgr : the symmetry operation no.  40 is a -3 axis
 symplanes : the symmetry operation no.  41 is a mirror plane
 symaxes : the symmetry operation no.  42 is a 2-axis
 symplanes : the symmetry operation no.  43 is a mirror plane
 symaxes : the symmetry operation no.  44 is a 2_1-axis
 symspgr : the symmetry operation no.  45 is a -4 axis
 symaxes : the symmetry operation no.  46 is a 4_1 or 4_3-axis
 symspgr : the symmetry operation no.  47 is a -4 axis
 symaxes : the symmetry operation no.  48 is a 4_1 or 4_3-axis
 symspgr : the symmetry operation no.  49 is a pure translation
 symspgr : the symmetry operation no.  50 is an inversion
 symaxes : the symmetry operation no.  51 is a 2_1-axis
 symplanes : the symmetry operation no.  52 is a d plane
 symaxes : the symmetry operation no.  53 is a 2_1-axis
 symplanes : the symmetry operation no.  54 is a d plane
 symaxes : the symmetry operation no.  55 is a 2-axis
 symplanes : the symmetry operation no.  56 is a d plane
 symplanes : the symmetry operation no.  57 is a tertiary m plane
 symaxes : the symmetry operation no.  58 is a 2-axis
 symspgr : the symmetry operation no.  59 is a -4 axis
 symaxes : the symmetry operation no.  60 is a 4_1 or 4_3-axis
 symplanes : the symmetry operation no.  61 is a tertiary m plane
 symaxes : the symmetry operation no.  62 is a 2_1-axis
 symspgr : the symmetry operation no.  63 is a -4 axis
 symaxes : the symmetry operation no.  64 is a 4_1 or 4_3-axis
 symaxes : the symmetry operation no.  65 is a 3, 3_1 or 3_2 axis
 symspgr : the symmetry operation no.  66 is a -3 axis
 symaxes : the symmetry operation no.  67 is a 3-axis
 symspgr : the symmetry operation no.  68 is a -3 axis
 symaxes : the symmetry operation no.  69 is a 3, 3_1 or 3_2 axis
 symspgr : the symmetry operation no.  70 is a -3 axis
 symaxes : the symmetry operation no.  71 is a 3-axis
 symspgr : the symmetry operation no.  72 is a -3 axis
 symplanes : the symmetry operation no.  73 is a tertiary m plane
 symaxes : the symmetry operation no.  74 is a 2_1-axis
 symspgr : the symmetry operation no.  75 is a -4 axis
 symaxes : the symmetry operation no.  76 is a 4_1 or 4_3-axis
 symspgr : the symmetry operation no.  77 is a -4 axis
 symaxes : the symmetry operation no.  78 is a 4_1 or 4_3-axis
 symplanes : the symmetry operation no.  79 is a mirror plane
 symaxes : the symmetry operation no.  80 is a 2-axis
 symaxes : the symmetry operation no.  81 is a 3, 3_1 or 3_2 axis
 symspgr : the symmetry operation no.  82 is a -3 axis
 symaxes : the symmetry operation no.  83 is a 3, 3_1 or 3_2 axis
 symspgr : the symmetry operation no.  84 is a -3 axis
 symaxes : the symmetry operation no.  85 is a 3-axis
 symspgr : the symmetry operation no.  86 is a -3 axis
 symaxes : the symmetry operation no.  87 is a 3-axis
 symspgr : the symmetry operation no.  88 is a -3 axis
 symplanes : the symmetry operation no.  89 is a tertiary m plane
 symaxes : the symmetry operation no.  90 is a 2_1-axis
 symplanes : the symmetry operation no.  91 is a tertiary m plane
 symaxes : the symmetry operation no.  92 is a 2-axis
 symspgr : the symmetry operation no.  93 is a -4 axis
 symaxes : the symmetry operation no.  94 is a 4_1 or 4_3-axis
 symspgr : the symmetry operation no.  95 is a -4 axis
 symaxes : the symmetry operation no.  96 is a 4_1 or 4_3-axis
 symspgr : the symmetry operation no.  97 is a pure translation
 symspgr : the symmetry operation no.  98 is an inversion
 symaxes : the symmetry operation no.  99 is a 2-axis
 symplanes : the symmetry operation no. 100 is a d plane
 symaxes : the symmetry operation no. 101 is a 2_1-axis
 symplanes : the symmetry operation no. 102 is a d plane
 symaxes : the symmetry operation no. 103 is a 2_1-axis
 symplanes : the symmetry operation no. 104 is a d plane
 symplanes : the symmetry operation no. 105 is a tertiary m plane
 symaxes : the symmetry operation no. 106 is a 2-axis
 symspgr : the symmetry operation no. 107 is a -4 axis
 symaxes : the symmetry operation no. 108 is a 4_1 or 4_3-axis
 symplanes : the symmetry operation no. 109 is a tertiary m plane
 symaxes : the symmetry operation no. 110 is a 2_1-axis
 symspgr : the symmetry operation no. 111 is a -4 axis
 symaxes : the symmetry operation no. 112 is a 4_1 or 4_3-axis
 symaxes : the symmetry operation no. 113 is a 3, 3_1 or 3_2 axis
 symspgr : the symmetry operation no. 114 is a -3 axis
 symaxes : the symmetry operation no. 115 is a 3-axis
 symspgr : the symmetry operation no. 116 is a -3 axis
 symaxes : the symmetry operation no. 117 is a 3-axis
 symspgr : the symmetry operation no. 118 is a -3 axis
 symaxes : the symmetry operation no. 119 is a 3, 3_1 or 3_2 axis
 symspgr : the symmetry operation no. 120 is a -3 axis
 symplanes : the symmetry operation no. 121 is a tertiary m plane
 symaxes : the symmetry operation no. 122 is a 2-axis
 symspgr : the symmetry operation no. 123 is a -4 axis
 symaxes : the symmetry operation no. 124 is a 4_1 or 4_3-axis
 symspgr : the symmetry operation no. 125 is a -4 axis
 symaxes : the symmetry operation no. 126 is a 4_1 or 4_3-axis
 symplanes : the symmetry operation no. 127 is a tertiary m plane
 symaxes : the symmetry operation no. 128 is a 2_1-axis
 symaxes : the symmetry operation no. 129 is a 3, 3_1 or 3_2 axis
 symspgr : the symmetry operation no. 130 is a -3 axis
 symaxes : the symmetry operation no. 131 is a 3-axis
 symspgr : the symmetry operation no. 132 is a -3 axis
 symaxes : the symmetry operation no. 133 is a 3, 3_1 or 3_2 axis
 symspgr : the symmetry operation no. 134 is a -3 axis
 symaxes : the symmetry operation no. 135 is a 3-axis
 symspgr : the symmetry operation no. 136 is a -3 axis
 symplanes : the symmetry operation no. 137 is a tertiary m plane
 symaxes : the symmetry operation no. 138 is a 2-axis
 symplanes : the symmetry operation no. 139 is a mirror plane
 symaxes : the symmetry operation no. 140 is a 2_1-axis
 symspgr : the symmetry operation no. 141 is a -4 axis
 symaxes : the symmetry operation no. 142 is a 4_1 or 4_3-axis
 symspgr : the symmetry operation no. 143 is a -4 axis
 symaxes : the symmetry operation no. 144 is a 4_1 or 4_3-axis
 symspgr : the symmetry operation no. 145 is a pure translation
 symspgr : the symmetry operation no. 146 is an inversion
 symaxes : the symmetry operation no. 147 is a 2_1-axis
 symplanes : the symmetry operation no. 148 is a d plane
 symaxes : the symmetry operation no. 149 is a 2-axis
 symplanes : the symmetry operation no. 150 is a d plane
 symaxes : the symmetry operation no. 151 is a 2_1-axis
 symplanes : the symmetry operation no. 152 is a d plane
 symplanes : the symmetry operation no. 153 is a tertiary m plane
 symaxes : the symmetry operation no. 154 is a 2_1-axis
 symspgr : the symmetry operation no. 155 is a -4 axis
 symaxes : the symmetry operation no. 156 is a 4_1 or 4_3-axis
 symplanes : the symmetry operation no. 157 is a mirror plane
 symaxes : the symmetry operation no. 158 is a 2-axis
 symspgr : the symmetry operation no. 159 is a -4 axis
 symaxes : the symmetry operation no. 160 is a 4_1 or 4_3-axis
 symaxes : the symmetry operation no. 161 is a 3, 3_1 or 3_2 axis
 symspgr : the symmetry operation no. 162 is a -3 axis
 symaxes : the symmetry operation no. 163 is a 3, 3_1 or 3_2 axis
 symspgr : the symmetry operation no. 164 is a -3 axis
 symaxes : the symmetry operation no. 165 is a 3-axis
 symspgr : the symmetry operation no. 166 is a -3 axis
 symaxes : the symmetry operation no. 167 is a 3-axis
 symspgr : the symmetry operation no. 168 is a -3 axis
 symplanes : the symmetry operation no. 169 is a tertiary m plane
 symaxes : the symmetry operation no. 170 is a 2-axis
 symspgr : the symmetry operation no. 171 is a -4 axis
 symaxes : the symmetry operation no. 172 is a 4_1 or 4_3-axis
 symspgr : the symmetry operation no. 173 is a -4 axis
 symaxes : the symmetry operation no. 174 is a 4_1 or 4_3-axis
 symplanes : the symmetry operation no. 175 is a tertiary m plane
 symaxes : the symmetry operation no. 176 is a 2_1-axis
 symaxes : the symmetry operation no. 177 is a 3, 3_1 or 3_2 axis
 symspgr : the symmetry operation no. 178 is a -3 axis
 symaxes : the symmetry operation no. 179 is a 3-axis
 symspgr : the symmetry operation no. 180 is a -3 axis
 symaxes : the symmetry operation no. 181 is a 3-axis
 symspgr : the symmetry operation no. 182 is a -3 axis
 symaxes : the symmetry operation no. 183 is a 3, 3_1 or 3_2 axis
 symspgr : the symmetry operation no. 184 is a -3 axis
 symplanes : the symmetry operation no. 185 is a tertiary m plane
 symaxes : the symmetry operation no. 186 is a 2_1-axis
 symplanes : the symmetry operation no. 187 is a tertiary m plane
 symaxes : the symmetry operation no. 188 is a 2-axis
 symspgr : the symmetry operation no. 189 is a -4 axis
 symaxes : the symmetry operation no. 190 is a 4_1 or 4_3-axis
 symspgr : the symmetry operation no. 191 is a -4 axis
 symaxes : the symmetry operation no. 192 is a 4_1 or 4_3-axis
 symspgr : spgroup= 227  Fd -3 m   (=Oh^7)
 invars2: take the default value of fband=  1.25000000E-01
 getkgrid : length of smallest supercell vector (bohr)=    1.634560E+02
       Simple Lattice Grid
 symkpt : found identity, with number  1
  dtset%nelect=   8.00000000000000     
 chkneu : initialized the occupation numbers for occopt=    1
    spin-unpolarized case :
  2.00  2.00  2.00  2.00  0.00
  dtset%nelect=   8.00000000000000     
 chkneu : initialized the occupation numbers for occopt=    1
    spin-unpolarized case :
  2.00  2.00  2.00  2.00  0.00  0.00  0.00  0.00  0.00  0.00
  mpi_setup : enter 
 getmpw sequential formula gave:     1139
 mpi_setup1: mkmem  undefined in the input file. Use default mkmem  = nkpt
 mpi_setup1: With nkpt_me=  408 and mkmem  =   408, ground state wf handled in core.
 mpi_setup1: mkqmem undefined in the input file. Use default mkqmem = nkpt
 mpi_setup1: With nkpt_me=  408 and mkqmem =   408, ground state wf handled in core.
 mpi_setup1: mk1mem undefined in the input file. Use default mk1mem = nkpt
 mpi_setup1: With nkpt_me=  408 and mk1mem =   408, ground state wf handled in core.

 getng.F90:199:WARNING
   The second and third dimension of the FFT grid,    0    0  were imposed to be multiple of the number of processors for the FFT,    1
 For input ecut=  2.000000E+01 best grid ngfft=      30      30      30
       max ecut=  2.132478E+01

 ==== FFT mesh ====
  FFT mesh divisions ........................    30   30   30
  Augmented FFT divisions ...................    31   31   30
  FFT algorithm .............................   312
  FFT cache size ............................    16
 getmpw: optimal value of mpw=    1156
 getmpw sequential formula gave:     1139

 mpi_setup : WARNING -
 For non ground state calculation, set bandpp, npfft, npband, npspinor and npkpt to 1
 mpi_setup1: mkmem  undefined in the input file. Use default mkmem  = nkpt
 mpi_setup1: With nkpt_me=   40 and mkmem  =    40, ground state wf handled in core.
 mpi_setup1: mkqmem undefined in the input file. Use default mkqmem = nkpt
 mpi_setup1: With nkpt_me=   40 and mkqmem =    40, ground state wf handled in core.
 mpi_setup1: mk1mem undefined in the input file. Use default mk1mem = nkpt
 mpi_setup1: With nkpt_me=   40 and mk1mem =    40, ground state wf handled in core.
 For input ecut=  2.000000E+01 best grid ngfft=      30      30      30
       max ecut=  2.132478E+01

 ==== FFT mesh ====
  FFT mesh divisions ........................    30   30   30
  Augmented FFT divisions ...................    31   31   30
  FFT algorithm .............................   312
  FFT cache size ............................    16
 getmpw: optimal value of mpw=    1159

 DATASET    1 : space group Fd -3 m (#227); Bravais cF (face-center cubic)

 getdim_nloc : deduce lmnmax  =   4, lnmax  =   2,
                      lmnmaxso=   4, lnmaxso=   2.
 setmqgrid : COMMENT -
  The number of points "mqgrid" in reciprocal space used for the
  description of the pseudopotentials has been set automatically
  by abinit to :     3001.
 memory : analysis of memory needs
================================================================================
 Values of the parameters that define the memory need for DATASET  1.
   intxc =         0  ionmov =         0    iscf =         7 xclevel =         1
  lmnmax =         2   lnmax =         2   mband =         5  mffmem =         1
P  mgfft =        30   mkmem =       408 mpssoang=         3     mpw =      1156
  mqgrid =      3001   natom =         2    nfft =     27000    nkpt =       408
  nloalg =         4  nspden =         1 nspinor =         1  nsppol =         1
    nsym =        48  n1xccc =      2501  ntypat =         1  occopt =         1
================================================================================
P This job should need less than                      50.065 Mbytes of memory.
  Rough estimation (10% accuracy) of disk space for files :
_ WF disk file :     35.986 Mbytes ; DEN or POT disk file :      0.208 Mbytes.
================================================================================

 Biggest array : cg(disk), with     35.9859 MBytes.
 leave_test : synchronization done...
 memana : allocated an array of     35.986 Mbytes, for testing purposes.
 memana : allocated      50.065 Mbytes, for testing purposes.
 The job will continue.

 DATASET    2 : space group Fd -3 m (#227); Bravais cF (face-center cubic)

 getdim_nloc : deduce lmnmax  =   4, lnmax  =   2,
                      lmnmaxso=   4, lnmaxso=   2.
 setmqgrid : COMMENT -
  The number of points "mqgrid" in reciprocal space used for the
  description of the pseudopotentials has been set automatically
  by abinit to :     3001.
 memory : analysis of memory needs
================================================================================
 Values of the parameters that define the memory need for DATASET  2.
   intxc =         0  ionmov =         0    iscf =        -2 xclevel =         1
  lmnmax =         2   lnmax =         2   mband =        10  mffmem =         1
P  mgfft =        30   mkmem =        40 mpssoang=         3     mpw =      1159
  mqgrid =      3001   natom =         2    nfft =     27000    nkpt =        40
  nloalg =         4  nspden =         1 nspinor =         1  nsppol =         1
    nsym =        48  n1xccc =      2501  ntypat =         1  occopt =         1
================================================================================
P This job should need less than                      12.745 Mbytes of memory.
  Rough estimation (10% accuracy) of disk space for files :
_ WF disk file :      7.076 Mbytes ; DEN or POT disk file :      0.208 Mbytes.
================================================================================

 Biggest array : cg(disk), with      7.0760 MBytes.
 leave_test : synchronization done...
 memana : allocated an array of      7.076 Mbytes, for testing purposes.
 memana : allocated      12.745 Mbytes, for testing purposes.
 The job will continue.
--------------------------------------------------------------------------------
------------- Echo of variables that govern the present computation ------------
--------------------------------------------------------------------------------
-
- outvars: echo of selected default values                                      
-   accesswff0 =  0 , fftalg0 =312 , wfoptalg0 =  0
-
- outvars: echo of global parameters not present in the input file              
-  max_nthreads =    1
-
 -outvars: echo values of preprocessed input variables --------
            acell      1.0216000000E+01  1.0216000000E+01  1.0216000000E+01 Bohr
              amu      2.80855000E+01
           diemac      1.20000000E+01
             ecut      2.00000000E+01 Hartree
           enunit1          0
           enunit2          1
           getden1          0
           getden2         -1
             iscf1          7
             iscf2         -2
           istwfk2       3    0    0    0    0    0    0    0    0    0
                         2    0    0    0    0    0    0    0    0    0
                         0    0    8    0    0    0    0    0    0    0
                         0    0    0    0    0    0    0    0    0    0
                       outvar_i_n : Printing only first  50 k-points.
           jdtset        1    2
              kpt1    -3.12500000E-02 -6.25000000E-02  0.00000000E+00
                      -3.12500000E-02 -1.25000000E-01  0.00000000E+00
                      -6.25000000E-02 -9.37500000E-02  0.00000000E+00
                      -3.12500000E-02 -9.37500000E-02  3.12500000E-02
                      -3.12500000E-02 -1.87500000E-01  0.00000000E+00
                      -6.25000000E-02 -1.56250000E-01  0.00000000E+00
                      -3.12500000E-02 -1.56250000E-01  3.12500000E-02
                      -9.37500000E-02 -1.25000000E-01  0.00000000E+00
                      -6.25000000E-02 -1.25000000E-01  3.12500000E-02
                      -3.12500000E-02 -1.25000000E-01  6.25000000E-02
                      -3.12500000E-02 -2.50000000E-01  0.00000000E+00
                      -6.25000000E-02 -2.18750000E-01  0.00000000E+00
                      -3.12500000E-02 -2.18750000E-01  3.12500000E-02
                      -9.37500000E-02 -1.87500000E-01  0.00000000E+00
                      -6.25000000E-02 -1.87500000E-01  3.12500000E-02
                      -3.12500000E-02 -1.87500000E-01  6.25000000E-02
                      -1.25000000E-01 -1.56250000E-01  0.00000000E+00
                      -9.37500000E-02 -1.56250000E-01  3.12500000E-02
                      -6.25000000E-02 -1.56250000E-01  6.25000000E-02
                      -3.12500000E-02 -1.56250000E-01  9.37500000E-02
                      -3.12500000E-02 -3.12500000E-01  0.00000000E+00
                      -6.25000000E-02 -2.81250000E-01  0.00000000E+00
                      -3.12500000E-02 -2.81250000E-01  3.12500000E-02
                      -9.37500000E-02 -2.50000000E-01  0.00000000E+00
                      -6.25000000E-02 -2.50000000E-01  3.12500000E-02
                      -3.12500000E-02 -2.50000000E-01  6.25000000E-02
                      -1.25000000E-01 -2.18750000E-01  0.00000000E+00
                      -9.37500000E-02 -2.18750000E-01  3.12500000E-02
                      -6.25000000E-02 -2.18750000E-01  6.25000000E-02
                      -3.12500000E-02 -2.18750000E-01  9.37500000E-02
                      -1.56250000E-01 -1.87500000E-01  0.00000000E+00
                      -1.25000000E-01 -1.87500000E-01  3.12500000E-02
                      -9.37500000E-02 -1.87500000E-01  6.25000000E-02
                      -6.25000000E-02 -1.87500000E-01  9.37500000E-02
                      -3.12500000E-02 -1.87500000E-01  1.25000000E-01
                      -3.12500000E-02 -3.75000000E-01  0.00000000E+00
                      -6.25000000E-02 -3.43750000E-01  0.00000000E+00
                      -3.12500000E-02 -3.43750000E-01  3.12500000E-02
                      -9.37500000E-02 -3.12500000E-01  0.00000000E+00
                      -6.25000000E-02 -3.12500000E-01  3.12500000E-02
                      -3.12500000E-02 -3.12500000E-01  6.25000000E-02
                      -1.25000000E-01 -2.81250000E-01  0.00000000E+00
                      -9.37500000E-02 -2.81250000E-01  3.12500000E-02
                      -6.25000000E-02 -2.81250000E-01  6.25000000E-02
                      -3.12500000E-02 -2.81250000E-01  9.37500000E-02
                      -1.56250000E-01 -2.50000000E-01  0.00000000E+00
                      -1.25000000E-01 -2.50000000E-01  3.12500000E-02
                      -9.37500000E-02 -2.50000000E-01  6.25000000E-02
                      -6.25000000E-02 -2.50000000E-01  9.37500000E-02
                      -3.12500000E-02 -2.50000000E-01  1.25000000E-01
              kpt2     5.00000000E-01  0.00000000E+00  0.00000000E+00
                       4.50000000E-01  0.00000000E+00  0.00000000E+00
                       4.00000000E-01  0.00000000E+00  0.00000000E+00
                       3.50000000E-01  0.00000000E+00  0.00000000E+00
                       3.00000000E-01  0.00000000E+00  0.00000000E+00
                       2.50000000E-01  0.00000000E+00  0.00000000E+00
                       2.00000000E-01  0.00000000E+00  0.00000000E+00
                       1.50000000E-01  0.00000000E+00  0.00000000E+00
                       1.00000000E-01  0.00000000E+00  0.00000000E+00
                       5.00000000E-02  0.00000000E+00  0.00000000E+00
                       0.00000000E+00  0.00000000E+00  0.00000000E+00
                       0.00000000E+00  4.16666667E-02  4.16666667E-02
                       0.00000000E+00  8.33333333E-02  8.33333333E-02
                       0.00000000E+00  1.25000000E-01  1.25000000E-01
                       0.00000000E+00  1.66666667E-01  1.66666667E-01
                       0.00000000E+00  2.08333333E-01  2.08333333E-01
                       0.00000000E+00  2.50000000E-01  2.50000000E-01
                       0.00000000E+00  2.91666667E-01  2.91666667E-01
                       0.00000000E+00  3.33333333E-01  3.33333333E-01
                       0.00000000E+00  3.75000000E-01  3.75000000E-01
                       0.00000000E+00  4.16666667E-01  4.16666667E-01
                       0.00000000E+00  4.58333333E-01  4.58333333E-01
                       0.00000000E+00  5.00000000E-01  5.00000000E-01
                       5.88235294E-02  5.29411765E-01  5.29411765E-01
                       1.17647059E-01  5.58823529E-01  5.58823529E-01
                       1.76470588E-01  5.88235294E-01  5.88235294E-01
                       2.35294118E-01  6.17647059E-01  6.17647059E-01
                       2.94117647E-01  6.47058824E-01  6.47058824E-01
                       3.52941176E-01  6.76470588E-01  6.76470588E-01
                       4.11764706E-01  7.05882353E-01  7.05882353E-01
                       4.70588235E-01  7.35294118E-01  7.35294118E-01
                       5.29411765E-01  7.64705882E-01  7.64705882E-01
                       5.88235294E-01  7.94117647E-01  7.94117647E-01
                       6.47058824E-01  8.23529412E-01  8.23529412E-01
                       7.05882353E-01  8.52941176E-01  8.52941176E-01
                       7.64705882E-01  8.82352941E-01  8.82352941E-01
                       8.23529412E-01  9.11764706E-01  9.11764706E-01
                       8.82352941E-01  9.41176471E-01  9.41176471E-01
                       9.41176471E-01  9.70588235E-01  9.70588235E-01
                       1.00000000E+00  1.00000000E+00  1.00000000E+00
                       outvar_i_n : Printing only first  50 k-points.
           kptopt1          1
           kptopt2         -3
         kptrlatt       16  -16   16    -16   16   16    -16  -16   16
          kptrlen1     1.63456000E+02
          kptrlen2     3.00000000E+01
P           mkmem1        408
P           mkmem2         40
            natom           2
            nband1          5
            nband2         10
           nbdbuf1          0
           nbdbuf2          2
           ndtset           2
            ngfft          30      30      30
             nkpt1        408
             nkpt2         40
            nstep          50
             nsym          48
           ntypat           1
              occ      2.000000  2.000000  2.000000  2.000000  0.000000
        optforces           1
            rprim      0.0000000000E+00  5.0000000000E-01  5.0000000000E-01
                       5.0000000000E-01  0.0000000000E+00  5.0000000000E-01
                       5.0000000000E-01  5.0000000000E-01  0.0000000000E+00
           shiftk      5.00000000E-01  5.00000000E-01  5.00000000E-01
          spgroup         227
           symrel      1  0  0   0  1  0   0  0  1      -1  0  0   0 -1  0   0  0 -1
                       0 -1  1   0 -1  0   1 -1  0       0  1 -1   0  1  0  -1  1  0
                      -1  0  0  -1  0  1  -1  1  0       1  0  0   1  0 -1   1 -1  0
                       0  1 -1   1  0 -1   0  0 -1       0 -1  1  -1  0  1   0  0  1
                      -1  0  0  -1  1  0  -1  0  1       1  0  0   1 -1  0   1  0 -1
                       0 -1  1   1 -1  0   0 -1  0       0  1 -1  -1  1  0   0  1  0
                       1  0  0   0  0  1   0  1  0      -1  0  0   0  0 -1   0 -1  0
                       0  1 -1   0  0 -1   1  0 -1       0 -1  1   0  0  1  -1  0  1
                      -1  0  1  -1  1  0  -1  0  0       1  0 -1   1 -1  0   1  0  0
                       0 -1  0   1 -1  0   0 -1  1       0  1  0  -1  1  0   0  1 -1
                       1  0 -1   0  0 -1   0  1 -1      -1  0  1   0  0  1   0 -1  1
                       0  1  0   0  0  1   1  0  0       0 -1  0   0  0 -1  -1  0  0
                       1  0 -1   0  1 -1   0  0 -1      -1  0  1   0 -1  1   0  0  1
                       0 -1  0   0 -1  1   1 -1  0       0  1  0   0  1 -1  -1  1  0
                      -1  0  1  -1  0  0  -1  1  0       1  0 -1   1  0  0   1 -1  0
                       0  1  0   1  0  0   0  0  1       0 -1  0  -1  0  0   0  0 -1
                       0  0 -1   0  1 -1   1  0 -1       0  0  1   0 -1  1  -1  0  1
                       1 -1  0   0 -1  1   0 -1  0      -1  1  0   0  1 -1   0  1  0
                       0  0  1   1  0  0   0  1  0       0  0 -1  -1  0  0   0 -1  0
                      -1  1  0  -1  0  0  -1  0  1       1 -1  0   1  0  0   1  0 -1
                       0  0  1   0  1  0   1  0  0       0  0 -1   0 -1  0  -1  0  0
                       1 -1  0   0 -1  0   0 -1  1      -1  1  0   0  1  0   0  1 -1
                       0  0 -1   1  0 -1   0  1 -1       0  0  1  -1  0  1   0 -1  1
                      -1  1  0  -1  0  1  -1  0  0       1 -1  0   1  0 -1   1  0  0
            tnons      0.0000000  0.0000000  0.0000000     0.2500000  0.2500000  0.2500000
                       0.0000000  0.0000000  0.0000000     0.2500000  0.2500000  0.2500000
                       0.0000000  0.0000000  0.0000000     0.2500000  0.2500000  0.2500000
                       0.0000000  0.0000000  0.0000000     0.2500000  0.2500000  0.2500000
                       0.0000000  0.0000000  0.0000000     0.2500000  0.2500000  0.2500000
                       0.0000000  0.0000000  0.0000000     0.2500000  0.2500000  0.2500000
                       0.0000000  0.0000000  0.0000000     0.2500000  0.2500000  0.2500000
                       0.0000000  0.0000000  0.0000000     0.2500000  0.2500000  0.2500000
                       0.0000000  0.0000000  0.0000000     0.2500000  0.2500000  0.2500000
                       0.0000000  0.0000000  0.0000000     0.2500000  0.2500000  0.2500000
                       0.0000000  0.0000000  0.0000000     0.2500000  0.2500000  0.2500000
                       0.0000000  0.0000000  0.0000000     0.2500000  0.2500000  0.2500000
                       0.0000000  0.0000000  0.0000000     0.2500000  0.2500000  0.2500000
                       0.0000000  0.0000000  0.0000000     0.2500000  0.2500000  0.2500000
                       0.0000000  0.0000000  0.0000000     0.2500000  0.2500000  0.2500000
                       0.0000000  0.0000000  0.0000000     0.2500000  0.2500000  0.2500000
                       0.0000000  0.0000000  0.0000000     0.2500000  0.2500000  0.2500000
                       0.0000000  0.0000000  0.0000000     0.2500000  0.2500000  0.2500000
                       0.0000000  0.0000000  0.0000000     0.2500000  0.2500000  0.2500000
                       0.0000000  0.0000000  0.0000000     0.2500000  0.2500000  0.2500000
                       0.0000000  0.0000000  0.0000000     0.2500000  0.2500000  0.2500000
                       0.0000000  0.0000000  0.0000000     0.2500000  0.2500000  0.2500000
                       0.0000000  0.0000000  0.0000000     0.2500000  0.2500000  0.2500000
                       0.0000000  0.0000000  0.0000000     0.2500000  0.2500000  0.2500000
           toldfe1     1.00000000E-09 Hartree
           toldfe2     0.00000000E+00 Hartree
           tolwfr1     0.00000000E+00
           tolwfr2     1.00000000E-12
            typat      1  1
              wtk1       0.00146    0.00146    0.00146    0.00293    0.00146    0.00146
                         0.00293    0.00146    0.00293    0.00293    0.00146    0.00146
                         0.00293    0.00146    0.00293    0.00293    0.00146    0.00293
                         0.00293    0.00293    0.00146    0.00146    0.00293    0.00146
                         0.00293    0.00293    0.00146    0.00293    0.00293    0.00293
                         0.00146    0.00293    0.00293    0.00293    0.00293    0.00146
                         0.00146    0.00293    0.00146    0.00293    0.00293    0.00146
                         0.00293    0.00293    0.00293    0.00146    0.00293    0.00293
                         0.00293    0.00293
              wtk2       1.00000    1.00000    1.00000    1.00000    1.00000    1.00000
                         1.00000    1.00000    1.00000    1.00000    1.00000    1.00000
                         1.00000    1.00000    1.00000    1.00000    1.00000    1.00000
                         1.00000    1.00000    1.00000    1.00000    1.00000    1.00000
                         1.00000    1.00000    1.00000    1.00000    1.00000    1.00000
                         1.00000    1.00000    1.00000    1.00000    1.00000    1.00000
                         1.00000    1.00000    1.00000    1.00000
                       outvars : Printing only first  50 k-points.
           xangst      0.0000000000E+00  0.0000000000E+00  0.0000000000E+00
                       1.3515185907E+00  1.3515185907E+00  1.3515185907E+00
            xcart      0.0000000000E+00  0.0000000000E+00  0.0000000000E+00
                       2.5540000000E+00  2.5540000000E+00  2.5540000000E+00
             xred      0.0000000000E+00  0.0000000000E+00  0.0000000000E+00
                       2.5000000000E-01  2.5000000000E-01  2.5000000000E-01
            znucl       14.00000

================================================================================
 leave_test : synchronization done...

 chkinp: machine precision is   2.2204460492503131E-16

 chkinp: Checking input parameters for consistency, jdtset=   1.

 chkinp: Checking input parameters for consistency, jdtset=   2.
 DATA TYPE INFORMATION: 
 REAL:      Data type name: REAL(DP) 
            Kind value:      8
            Precision:      15
            Smallest nonnegligible quantity relative to 1:  0.22204460E-15
            Smallest positive number:                       0.22250739-307
            Largest representable number:                   0.17976931+309
 INTEGER:   Data type name: INTEGER(default) 
            Kind value: 4
            Bit size:   32
            Largest representable number: 2147483647
 LOGICAL:   Data type name: LOGICAL 
            Kind value: 4
 CHARACTER: Data type name: CHARACTER             Kind value: 1
 ==== OpenMP parallelism is ON ====
-  Max_threads :        1
-   Num_procs :         1
-   Dynamic :           F
-   Nested :            F
 
  ==== Using MPI-2 specifications ==== 
  MPI-IO support is ON
  xmpi_tag_ub ................   1073741823
  xmpi_bsize_ch ..............            1
  xmpi_bsize_int .............            4
  xmpi_bsize_sp ..............            4
  xmpi_bsize_dp ..............            8
  xmpi_bsize_spc .............            8
  xmpi_bsize_dpc .............           16
  xmpio_bsize_frm ............            4
  xmpi_address_kind ..........            8
  xmpi_offset_kind ...........            8
  MPI_WTICK ..................   1.000000000000000E-006

================================================================================
== DATASET  1 ==================================================================
-   nproc =    1

 setmqgrid : COMMENT -
  The number of points "mqgrid" in reciprocal space used for the
  description of the pseudopotentials has been set automatically
  by abinit to :     3001.

 getdim_nloc : deduce lmnmax  =   4, lnmax  =   2,
                      lmnmaxso=   4, lnmaxso=   2.
 Exchange-correlation functional for the present dataset will be:
  LDA: new Teter (4/93) with spin-polarized option - ixc=1
 Citation for XC functional:
  S. Goedecker, M. Teter, J. Huetter, PRB 54, 1703 (1996)
 
 Unit cell volume ucvol=  2.6655244E+02 bohr^3
 Angles (23,13,12)=  6.00000000E+01  6.00000000E+01  6.00000000E+01 degrees

 getcut: wavevector=  0.0000  0.0000  0.0000  ngfft=  30  30  30
         ecut(hartree)=     20.000   => boxcut(ratio)=   2.06518
- pspini: atom type   1  psp file is /work/02288/mgs763/abinit-7.2.2_src/tests/Psps_for_tests/14si.pspnc
- pspatm: opening atomic psp file    /work/02288/mgs763/abinit-7.2.2_src/tests/Psps_for_tests/14si.pspnc
-  Troullier-Martins psp for element  Si        Thu Oct 27 17:31:21 EDT 1994
- 14.00000   4.00000    940714                znucl, zion, pspdat
    1    1    2    2      2001   0.00000      pspcod,pspxc,lmax,lloc,mmax,r2well
    0   5.907  14.692    1   2.0872718        l,e99.0,e99.9,nproj,rcpsp
   0.00000000   0.00000000   0.00000000   0.00000000     rms, ekb1, ekb2, epsatm
    1   2.617   4.181    1   2.0872718        l,e99.0,e99.9,nproj,rcpsp
   0.00000000   0.00000000   0.00000000   0.00000000     rms, ekb1, ekb2, epsatm
    2   0.000   0.000    0   2.0872718        l,e99.0,e99.9,nproj,rcpsp
   0.00000000   0.00000000   0.00000000   0.00000000     rms, ekb1, ekb2, epsatm
    1.80626423934776    0.22824404341771    1.17378968127746   rchrg,fchrg,qchrg
 pspatm: epsatm=    1.43386982
         --- l  ekb(1:nproj) -->
             0    3.287949
             1    1.849886
 pspatm: atomic psp has been read  and splines computed

   2.29419171E+01                                ecore*ucvol(ha*bohr**3)
 symatm: atom number     1 is reached starting at atom
   1  2  1  2  1  2  1  2  1  2  1  2  1  2  1  2  1  2  1  2  1  2  1  2
   1  2  1  2  1  2  1  2  1  2  1  2  1  2  1  2  1  2  1  2  1  2  1  2
 symatm: atom number     2 is reached starting at atom
   2  1  2  1  2  1  2  1  2  1  2  1  2  1  2  1  2  1  2  1  2  1  2  1
   2  1  2  1  2  1  2  1  2  1  2  1  2  1  2  1  2  1  2  1  2  1  2  1
 wfconv:     5 bands initialized randomly with npw=  1146, for ikpt=     1
 wfconv:     5 bands initialized randomly with npw=  1148, for ikpt=     2
 wfconv:     5 bands initialized randomly with npw=  1149, for ikpt=     3
 wfconv:     5 bands initialized randomly with npw=  1149, for ikpt=     4
 wfconv:     5 bands initialized randomly with npw=  1152, for ikpt=     5
 wfconv:     5 bands initialized randomly with npw=  1149, for ikpt=     6
 wfconv:     5 bands initialized randomly with npw=  1149, for ikpt=     7
 wfconv:     5 bands initialized randomly with npw=  1153, for ikpt=     8
 wfconv:     5 bands initialized randomly with npw=  1151, for ikpt=     9
 wfconv:     5 bands initialized randomly with npw=  1151, for ikpt=    10
 wfconv:     5 bands initialized randomly with npw=  1138, for ikpt=    11
 wfconv:     5 bands initialized randomly with npw=  1143, for ikpt=    12
 wfconv:     5 bands initialized randomly with npw=  1141, for ikpt=    13
 wfconv:     5 bands initialized randomly with npw=  1153, for ikpt=    14
 wfconv:     5 bands initialized randomly with npw=  1149, for ikpt=    15
 wfconv:     5 bands initialized randomly with npw=  1141, for ikpt=    16
 wfconv:     5 bands initialized randomly with npw=  1152, for ikpt=    17
 wfconv:     5 bands initialized randomly with npw=  1148, for ikpt=    18
 wfconv:     5 bands initialized randomly with npw=  1149, for ikpt=    19
 wfconv:     5 bands initialized randomly with npw=  1145, for ikpt=    20
 wfconv:     5 bands initialized randomly with npw=  1145, for ikpt=    21
 wfconv:     5 bands initialized randomly with npw=  1134, for ikpt=    22
 wfconv:     5 bands initialized randomly with npw=  1137, for ikpt=    23
 wfconv:     5 bands initialized randomly with npw=  1135, for ikpt=    24
 wfconv:     5 bands initialized randomly with npw=  1134, for ikpt=    25
 wfconv:     5 bands initialized randomly with npw=  1133, for ikpt=    26
 wfconv:     5 bands initialized randomly with npw=  1148, for ikpt=    27
 wfconv:     5 bands initialized randomly with npw=  1140, for ikpt=    28
 wfconv:     5 bands initialized randomly with npw=  1138, for ikpt=    29
 wfconv:     5 bands initialized randomly with npw=  1133, for ikpt=    30
 wfconv:     5 bands initialized randomly with npw=  1149, for ikpt=    31
 wfconv:     5 bands initialized randomly with npw=  1145, for ikpt=    32
 wfconv:     5 bands initialized randomly with npw=  1143, for ikpt=    33
 wfconv:     5 bands initialized randomly with npw=  1141, for ikpt=    34
 wfconv:     5 bands initialized randomly with npw=  1136, for ikpt=    35
 wfconv:     5 bands initialized randomly with npw=  1143, for ikpt=    36
 wfconv:     5 bands initialized randomly with npw=  1136, for ikpt=    37
 wfconv:     5 bands initialized randomly with npw=  1140, for ikpt=    38
 wfconv:     5 bands initialized randomly with npw=  1131, for ikpt=    39
 wfconv:     5 bands initialized randomly with npw=  1136, for ikpt=    40
 wfconv:     5 bands initialized randomly with npw=  1135, for ikpt=    41
 wfconv:     5 bands initialized randomly with npw=  1137, for ikpt=    42
 wfconv:     5 bands initialized randomly with npw=  1136, for ikpt=    43
 wfconv:     5 bands initialized randomly with npw=  1133, for ikpt=    44
 wfconv:     5 bands initialized randomly with npw=  1136, for ikpt=    45
 wfconv:     5 bands initialized randomly with npw=  1143, for ikpt=    46
 wfconv:     5 bands initialized randomly with npw=  1134, for ikpt=    47
 wfconv:     5 bands initialized randomly with npw=  1136, for ikpt=    48
 wfconv:     5 bands initialized randomly with npw=  1136, for ikpt=    49
 wfconv:     5 bands initialized randomly with npw=  1137, for ikpt=    50
 leave_test : synchronization done...
 pareigocc : MPI_ALLREDUCE
 
_setup2: Arith. and geom. avg. npw (full set) are    1138.760    1138.753
 initro : for itypat=  1, take decay length=      1.1000,
 initro : indeed, coreel=     10.0000, nval=  4 and densty=  0.0000E+00.

================================================================================

 getcut: wavevector=  0.0000  0.0000  0.0000  ngfft=  30  30  30
         ecut(hartree)=     20.000   => boxcut(ratio)=   2.06518

 ewald : nr and ng are    3 and   11

 ITER STEP NUMBER     1
 vtorho : nnsclo_now=  2, note that nnsclo,dbl_nnsclo,istep=  0 0  1
 leave_test : synchronization done...
 vtorho: loop on k-points and spins done in parallel
 Total charge density [el/Bohr^3]
,     Maximum=    9.2774E-02  at reduced coord.    0.1000    0.1000    0.7000
,     Minimum=    2.8564E-03  at reduced coord.    0.5000    0.5000    0.5000
,  Integrated=    8.0000E+00
 ETOT  1  -8.8701943579172    -8.870E+00 1.894E-02 1.988E+01 0.000E+00 0.000E+00
 scprqt: <Vxc>= -3.5173901E-01 hartree

Simple mixing update:
  residual square of the potential :   8.54139511615788

 ITER STEP NUMBER     2
 vtorho : nnsclo_now=  2, note that nnsclo,dbl_nnsclo,istep=  0 0  2
 leave_test : synchronization done...
 vtorho: loop on k-points and spins done in parallel
 Total charge density [el/Bohr^3]
,     Maximum=    8.6524E-02  at reduced coord.    0.1000    0.1000    0.7000
,     Minimum=    3.3923E-03  at reduced coord.    0.5000    0.5000    0.5000
,  Integrated=    8.0000E+00
 ETOT  2  -8.8769203701928    -6.726E-03 2.345E-03 5.245E-01 0.000E+00 0.000E+00
 scprqt: <Vxc>= -3.5415780E-01 hartree

 Pulay update with  1 previous iterations:
 mixing of old trial potential : alpha(m:m-4)=   1.15     -0.154

 ITER STEP NUMBER     3
 vtorho : nnsclo_now=  1, note that nnsclo,dbl_nnsclo,istep=  0 0  3
 leave_test : synchronization done...
 vtorho: loop on k-points and spins done in parallel
 Total charge density [el/Bohr^3]
,     Maximum=    8.5985E-02  at reduced coord.    0.1000    0.1000    0.7000
,     Minimum=    3.5128E-03  at reduced coord.    0.5000    0.5000    0.5000
,  Integrated=    8.0000E+00
 ETOT  3  -8.8769964442651    -7.607E-05 2.375E-04 1.034E-02 0.000E+00 0.000E+00
 scprqt: <Vxc>= -3.5448340E-01 hartree

 Pulay update with  2 previous iterations:
 mixing of old trial potential : alpha(m:m-4)=   1.23     -0.245      0.173E-01

 ITER STEP NUMBER     4
 vtorho : nnsclo_now=  1, note that nnsclo,dbl_nnsclo,istep=  0 0  4
 leave_test : synchronization done...
 vtorho: loop on k-points and spins done in parallel
 Total charge density [el/Bohr^3]
,     Maximum=    8.5976E-02  at reduced coord.    0.1000    0.1000    0.7000
,     Minimum=    3.5324E-03  at reduced coord.    0.5000    0.5000    0.5000
,  Integrated=    8.0000E+00
 ETOT  4  -8.8769973940770    -9.498E-07 3.900E-04 4.444E-05 0.000E+00 0.000E+00
 scprqt: <Vxc>= -3.5452023E-01 hartree

 Pulay update with  3 previous iterations:
 mixing of old trial potential : alpha(m:m-4)=   1.17     -0.204      0.363E-01 -0.301E-02

 ITER STEP NUMBER     5
 vtorho : nnsclo_now=  1, note that nnsclo,dbl_nnsclo,istep=  0 0  5
 leave_test : synchronization done...
 vtorho: loop on k-points and spins done in parallel
 Total charge density [el/Bohr^3]
,     Maximum=    8.5973E-02  at reduced coord.    0.1000    0.1000    0.7000
,     Minimum=    3.5336E-03  at reduced coord.    0.5000    0.5000    0.5000
,  Integrated=    8.0000E+00
 ETOT  5  -8.8769974000952    -6.018E-09 3.486E-05 6.223E-08 0.000E+00 0.000E+00
 scprqt: <Vxc>= -3.5452331E-01 hartree

 Pulay update with  4 previous iterations:
 mixing of old trial potential : alpha(m:m-4)=   1.09     -0.105      0.205E-01 -0.379E-02  0.355E-03

 ITER STEP NUMBER     6
 vtorho : nnsclo_now=  1, note that nnsclo,dbl_nnsclo,istep=  0 0  6
 leave_test : synchronization done...
 vtorho: loop on k-points and spins done in parallel
 Total charge density [el/Bohr^3]
,     Maximum=    8.5973E-02  at reduced coord.    0.1000    0.1000    0.7000
,     Minimum=    3.5336E-03  at reduced coord.    0.5000    0.5000    0.5000
,  Integrated=    8.0000E+00
 ETOT  6  -8.8769974001076    -1.238E-11 7.787E-05 5.111E-10 0.000E+00 0.000E+00
 scprqt: <Vxc>= -3.5452317E-01 hartree

 Pulay update with  5 previous iterations:
 mixing of old trial potential : alpha(m:m-4)=   1.08     -0.805E-01  0.650E-03 -0.624E-03  0.130E-03

 ITER STEP NUMBER     7
 vtorho : nnsclo_now=  1, note that nnsclo,dbl_nnsclo,istep=  0 0  7
 leave_test : synchronization done...
 vtorho: loop on k-points and spins done in parallel
 Total charge density [el/Bohr^3]
,     Maximum=    8.5973E-02  at reduced coord.    0.1000    0.1000    0.7000
,     Minimum=    3.5336E-03  at reduced coord.    0.5000    0.5000    0.5000
,  Integrated=    8.0000E+00
 ETOT  7  -8.8769974001076     4.441E-14 7.328E-06 1.895E-12 0.000E+00 0.000E+00
 scprqt: <Vxc>= -3.5452318E-01 hartree

 At SCF step    7, etot is converged : 
  for the second time, diff in etot=  4.441E-14 < toldfe=  1.000E-09
forstrnps: loop on k-points and spins done in parallel
 leave_test : synchronization done...
  strhar : before mpi_comm, harstr=  4.235240917966366E-003
  4.235240917966366E-003  4.235240917966367E-003 -1.084202172485504E-019
 -1.084202172485504E-019 -3.686287386450715E-018
  strhar : after mpi_comm, harstr=  4.235240917966366E-003
  4.235240917966366E-003  4.235240917966367E-003 -1.084202172485504E-019
 -1.084202172485504E-019 -3.686287386450715E-018
  strhar : ehart,ucvol=  0.539016633939946        266.552439424000     

 Cartesian components of stress tensor (hartree/bohr^3)
  sigma(1 1)=  1.48477791E-05  sigma(3 2)=  0.00000000E+00
  sigma(2 2)=  1.48477791E-05  sigma(3 1)=  0.00000000E+00
  sigma(3 3)=  1.48477791E-05  sigma(2 1)=  0.00000000E+00
 
 symatm: atom number     1 is reached starting at atom
   1  2  1  2  1  2  1  2  1  2  1  2  1  2  1  2  1  2  1  2  1  2  1  2
   1  2  1  2  1  2  1  2  1  2  1  2  1  2  1  2  1  2  1  2  1  2  1  2
 symatm: atom number     2 is reached starting at atom
   2  1  2  1  2  1  2  1  2  1  2  1  2  1  2  1  2  1  2  1  2  1  2  1
   2  1  2  1  2  1  2  1  2  1  2  1  2  1  2  1  2  1  2  1  2  1  2  1
 ioarr: writing density data
ioarr: file name is out_tbase3_DS1_DEN
ioarr: data written to disk file out_tbase3_DS1_DEN
 leave_test : synchronization done...
================================================================================

 ----iterations are completed or convergence reached----


 outwf: write wavefunction to file out_tbase3_DS1_WFK, with accesswff -1
 leave_test : synchronization done...
 outwf with iomode: -1, cpu:     0.13, wall:     0.13

 === Gap info ===
  >>>> For spin  1
   Minimum optical gap =   2.5631 [eV], located at k-point      :  -0.0312 -0.0625  0.0000
   Fundamental gap     =   0.5123 [eV], Top of valence bands at :  -0.0312  0.0000  0.0000
                                        Bottom of conduction at :  -0.4062 -0.4375  0.0000

 Cartesian components of stress tensor (hartree/bohr^3)
  sigma(1 1)=  1.48477791E-05  sigma(3 2)=  0.00000000E+00
  sigma(2 2)=  1.48477791E-05  sigma(3 1)=  0.00000000E+00
  sigma(3 3)=  1.48477791E-05  sigma(2 1)=  0.00000000E+00

-Cartesian components of stress tensor (GPa)         [Pressure= -4.3684E-01 GPa]
- sigma(1 1)=  4.36836670E-01  sigma(3 2)=  0.00000000E+00
- sigma(2 2)=  4.36836670E-01  sigma(3 1)=  0.00000000E+00
- sigma(3 3)=  4.36836670E-01  sigma(2 1)=  0.00000000E+00

================================================================================
== DATASET  2 ==================================================================
-   nproc =    1

 mkfilename : getden/=0, take file _DEN from output of DATASET   1.

 setmqgrid : COMMENT -
  The number of points "mqgrid" in reciprocal space used for the
  description of the pseudopotentials has been set automatically
  by abinit to :     3001.

 getdim_nloc : deduce lmnmax  =   4, lnmax  =   2,
                      lmnmaxso=   4, lnmaxso=   2.
 Exchange-correlation functional for the present dataset will be:
  LDA: new Teter (4/93) with spin-polarized option - ixc=1
 Citation for XC functional:
  S. Goedecker, M. Teter, J. Huetter, PRB 54, 1703 (1996)
 
 Unit cell volume ucvol=  2.6655244E+02 bohr^3
 Angles (23,13,12)=  6.00000000E+01  6.00000000E+01  6.00000000E+01 degrees

 getcut: wavevector=  0.0000  0.0000  0.0000  ngfft=  30  30  30
         ecut(hartree)=     20.000   => boxcut(ratio)=   2.06518
 symatm: atom number     1 is reached starting at atom
   1  2  1  2  1  2  1  2  1  2  1  2  1  2  1  2  1  2  1  2  1  2  1  2
   1  2  1  2  1  2  1  2  1  2  1  2  1  2  1  2  1  2  1  2  1  2  1  2
 symatm: atom number     2 is reached starting at atom
   2  1  2  1  2  1  2  1  2  1  2  1  2  1  2  1  2  1  2  1  2  1  2  1
   2  1  2  1  2  1  2  1  2  1  2  1  2  1  2  1  2  1  2  1  2  1  2  1
 wfconv:    10 bands initialized randomly with npw=   579, for ikpt=     1
 wfconv:    10 bands initialized randomly with npw=  1149, for ikpt=     2
 wfconv:    10 bands initialized randomly with npw=  1149, for ikpt=     3
 wfconv:    10 bands initialized randomly with npw=  1149, for ikpt=     4
 wfconv:    10 bands initialized randomly with npw=  1149, for ikpt=     5
 wfconv:    10 bands initialized randomly with npw=  1146, for ikpt=     6
 wfconv:    10 bands initialized randomly with npw=  1152, for ikpt=     7
 wfconv:    10 bands initialized randomly with npw=  1149, for ikpt=     8
 wfconv:    10 bands initialized randomly with npw=  1143, for ikpt=     9
 wfconv:    10 bands initialized randomly with npw=  1154, for ikpt=    10
 wfconv:    10 bands initialized randomly with npw=   570, for ikpt=    11
 wfconv:    10 bands initialized randomly with npw=  1147, for ikpt=    12
 wfconv:    10 bands initialized randomly with npw=  1147, for ikpt=    13
 wfconv:    10 bands initialized randomly with npw=  1155, for ikpt=    14
 wfconv:    10 bands initialized randomly with npw=  1154, for ikpt=    15
 wfconv:    10 bands initialized randomly with npw=  1134, for ikpt=    16
 wfconv:    10 bands initialized randomly with npw=  1118, for ikpt=    17
 wfconv:    10 bands initialized randomly with npw=  1130, for ikpt=    18
 wfconv:    10 bands initialized randomly with npw=  1118, for ikpt=    19
 wfconv:    10 bands initialized randomly with npw=  1142, for ikpt=    20
 wfconv:    10 bands initialized randomly with npw=  1138, for ikpt=    21
 wfconv:    10 bands initialized randomly with npw=  1138, for ikpt=    22
 wfconv:    10 bands initialized randomly with npw=   569, for ikpt=    23
 wfconv:    10 bands initialized randomly with npw=  1138, for ikpt=    24
 wfconv:    10 bands initialized randomly with npw=  1138, for ikpt=    25
 wfconv:    10 bands initialized randomly with npw=  1140, for ikpt=    26
 wfconv:    10 bands initialized randomly with npw=  1136, for ikpt=    27
 wfconv:    10 bands initialized randomly with npw=  1135, for ikpt=    28
 wfconv:    10 bands initialized randomly with npw=  1141, for ikpt=    29
 wfconv:    10 bands initialized randomly with npw=  1131, for ikpt=    30
 wfconv:    10 bands initialized randomly with npw=  1129, for ikpt=    31
 wfconv:    10 bands initialized randomly with npw=  1135, for ikpt=    32
 wfconv:    10 bands initialized randomly with npw=  1135, for ikpt=    33
 wfconv:    10 bands initialized randomly with npw=  1141, for ikpt=    34
 wfconv:    10 bands initialized randomly with npw=  1141, for ikpt=    35
 wfconv:    10 bands initialized randomly with npw=  1153, for ikpt=    36
 wfconv:    10 bands initialized randomly with npw=  1159, for ikpt=    37
 wfconv:    10 bands initialized randomly with npw=  1147, for ikpt=    38
 wfconv:    10 bands initialized randomly with npw=  1145, for ikpt=    39
 wfconv:    10 bands initialized randomly with npw=  1139, for ikpt=    40
 leave_test : synchronization done...
 pareigocc : MPI_ALLREDUCE
 
 ioarr: reading density data
ioarr: file name is out_tbase3_DS1_DEN

================================================================================

          - hdr_check: checking restart file header for consistency -


        current calculation                         restart file
        -------------------                         ------------

  calculation expects a density         |  input file contains a density
. ABINIT  code version 7.2.2            |  ABINIT  code version 7.2.2
. date 20130822 bantot  400 natom    2  |  date 20130822 bantot 2040 natom    2
  nkpt  40 nsym 48 ngfft  30,  30,  30  |  nkpt 408 nsym 48 ngfft  30,  30,  30
  ntypat  1 ecut_eff  20.0000000        |  ntypat  1 ecut_eff  20.0000000
  usepaw  0                             |  usepaw  0
  usewvl  0                             |  usewvl  0
  rprimd:                               |  rprimd:
     0.0000000   5.1080000   5.1080000  |     0.0000000   5.1080000   5.1080000
     5.1080000   0.0000000   5.1080000  |     5.1080000   0.0000000   5.1080000
     5.1080000   5.1080000   0.0000000  |     5.1080000   5.1080000   0.0000000
  symafm:                               |  symafm:
    1  1  1  1  1  1  1  1  1  1  1  1  |    1  1  1  1  1  1  1  1  1  1  1  1
    1  1  1  1  1  1  1  1  1  1  1  1  |    1  1  1  1  1  1  1  1  1  1  1  1
    1  1  1  1  1  1  1  1  1  1  1  1  |    1  1  1  1  1  1  1  1  1  1  1  1
    1  1  1  1  1  1  1  1  1  1  1  1  |    1  1  1  1  1  1  1  1  1  1  1  1
  symrel:                               |  symrel:
    1  0  0  0  1  0  0  0  1           |    1  0  0  0  1  0  0  0  1
   -1  0  0  0 -1  0  0  0 -1           |   -1  0  0  0 -1  0  0  0 -1
    0 -1  1  0 -1  0  1 -1  0           |    0 -1  1  0 -1  0  1 -1  0
    0  1 -1  0  1  0 -1  1  0           |    0  1 -1  0  1  0 -1  1  0
   -1  0  0 -1  0  1 -1  1  0           |   -1  0  0 -1  0  1 -1  1  0
    1  0  0  1  0 -1  1 -1  0           |    1  0  0  1  0 -1  1 -1  0
    0  1 -1  1  0 -1  0  0 -1           |    0  1 -1  1  0 -1  0  0 -1
    0 -1  1 -1  0  1  0  0  1           |    0 -1  1 -1  0  1  0  0  1
   -1  0  0 -1  1  0 -1  0  1           |   -1  0  0 -1  1  0 -1  0  1
    1  0  0  1 -1  0  1  0 -1           |    1  0  0  1 -1  0  1  0 -1
    0 -1  1  1 -1  0  0 -1  0           |    0 -1  1  1 -1  0  0 -1  0
    0  1 -1 -1  1  0  0  1  0           |    0  1 -1 -1  1  0  0  1  0
    1  0  0  0  0  1  0  1  0           |    1  0  0  0  0  1  0  1  0
   -1  0  0  0  0 -1  0 -1  0           |   -1  0  0  0  0 -1  0 -1  0
    0  1 -1  0  0 -1  1  0 -1           |    0  1 -1  0  0 -1  1  0 -1
    0 -1  1  0  0  1 -1  0  1           |    0 -1  1  0  0  1 -1  0  1
   -1  0  1 -1  1  0 -1  0  0           |   -1  0  1 -1  1  0 -1  0  0
    1  0 -1  1 -1  0  1  0  0           |    1  0 -1  1 -1  0  1  0  0
    0 -1  0  1 -1  0  0 -1  1           |    0 -1  0  1 -1  0  0 -1  1
    0  1  0 -1  1  0  0  1 -1           |    0  1  0 -1  1  0  0  1 -1
    1  0 -1  0  0 -1  0  1 -1           |    1  0 -1  0  0 -1  0  1 -1
   -1  0  1  0  0  1  0 -1  1           |   -1  0  1  0  0  1  0 -1  1
    0  1  0  0  0  1  1  0  0           |    0  1  0  0  0  1  1  0  0
    0 -1  0  0  0 -1 -1  0  0           |    0 -1  0  0  0 -1 -1  0  0
    1  0 -1  0  1 -1  0  0 -1           |    1  0 -1  0  1 -1  0  0 -1
   -1  0  1  0 -1  1  0  0  1           |   -1  0  1  0 -1  1  0  0  1
    0 -1  0  0 -1  1  1 -1  0           |    0 -1  0  0 -1  1  1 -1  0
    0  1  0  0  1 -1 -1  1  0           |    0  1  0  0  1 -1 -1  1  0
   -1  0  1 -1  0  0 -1  1  0           |   -1  0  1 -1  0  0 -1  1  0
    1  0 -1  1  0  0  1 -1  0           |    1  0 -1  1  0  0  1 -1  0
    0  1  0  1  0  0  0  0  1           |    0  1  0  1  0  0  0  0  1
    0 -1  0 -1  0  0  0  0 -1           |    0 -1  0 -1  0  0  0  0 -1
    0  0 -1  0  1 -1  1  0 -1           |    0  0 -1  0  1 -1  1  0 -1
    0  0  1  0 -1  1 -1  0  1           |    0  0  1  0 -1  1 -1  0  1
    1 -1  0  0 -1  1  0 -1  0           |    1 -1  0  0 -1  1  0 -1  0
   -1  1  0  0  1 -1  0  1  0           |   -1  1  0  0  1 -1  0  1  0
    0  0  1  1  0  0  0  1  0           |    0  0  1  1  0  0  0  1  0
    0  0 -1 -1  0  0  0 -1  0           |    0  0 -1 -1  0  0  0 -1  0
   -1  1  0 -1  0  0 -1  0  1           |   -1  1  0 -1  0  0 -1  0  1
    1 -1  0  1  0  0  1  0 -1           |    1 -1  0  1  0  0  1  0 -1
    0  0  1  0  1  0  1  0  0           |    0  0  1  0  1  0  1  0  0
    0  0 -1  0 -1  0 -1  0  0           |    0  0 -1  0 -1  0 -1  0  0
    1 -1  0  0 -1  0  0 -1  1           |    1 -1  0  0 -1  0  0 -1  1
   -1  1  0  0  1  0  0  1 -1           |   -1  1  0  0  1  0  0  1 -1
    0  0 -1  1  0 -1  0  1 -1           |    0  0 -1  1  0 -1  0  1 -1
    0  0  1 -1  0  1  0 -1  1           |    0  0  1 -1  0  1  0 -1  1
   -1  1  0 -1  0  1 -1  0  0           |   -1  1  0 -1  0  1 -1  0  0
    1 -1  0  1  0 -1  1  0  0           |    1 -1  0  1  0 -1  1  0  0
  typat:                                |  typat:
    1  1                                |    1  1
  so_psp  :                             |  so_psp  :
    1                                   |    1
  tnons:                                |  tnons:
     0.0000000   0.0000000   0.0000000  |     0.0000000   0.0000000   0.0000000
     0.2500000   0.2500000   0.2500000  |     0.2500000   0.2500000   0.2500000
     0.0000000   0.0000000   0.0000000  |     0.0000000   0.0000000   0.0000000
     0.2500000   0.2500000   0.2500000  |     0.2500000   0.2500000   0.2500000
     0.0000000   0.0000000   0.0000000  |     0.0000000   0.0000000   0.0000000
     0.2500000   0.2500000   0.2500000  |     0.2500000   0.2500000   0.2500000
     0.0000000   0.0000000   0.0000000  |     0.0000000   0.0000000   0.0000000
     0.2500000   0.2500000   0.2500000  |     0.2500000   0.2500000   0.2500000
     0.0000000   0.0000000   0.0000000  |     0.0000000   0.0000000   0.0000000
     0.2500000   0.2500000   0.2500000  |     0.2500000   0.2500000   0.2500000
     0.0000000   0.0000000   0.0000000  |     0.0000000   0.0000000   0.0000000
     0.2500000   0.2500000   0.2500000  |     0.2500000   0.2500000   0.2500000
     0.0000000   0.0000000   0.0000000  |     0.0000000   0.0000000   0.0000000
     0.2500000   0.2500000   0.2500000  |     0.2500000   0.2500000   0.2500000
     0.0000000   0.0000000   0.0000000  |     0.0000000   0.0000000   0.0000000
     0.2500000   0.2500000   0.2500000  |     0.2500000   0.2500000   0.2500000
     0.0000000   0.0000000   0.0000000  |     0.0000000   0.0000000   0.0000000
     0.2500000   0.2500000   0.2500000  |     0.2500000   0.2500000   0.2500000
     0.0000000   0.0000000   0.0000000  |     0.0000000   0.0000000   0.0000000
     0.2500000   0.2500000   0.2500000  |     0.2500000   0.2500000   0.2500000
     0.0000000   0.0000000   0.0000000  |     0.0000000   0.0000000   0.0000000
     0.2500000   0.2500000   0.2500000  |     0.2500000   0.2500000   0.2500000
     0.0000000   0.0000000   0.0000000  |     0.0000000   0.0000000   0.0000000
     0.2500000   0.2500000   0.2500000  |     0.2500000   0.2500000   0.2500000
     0.0000000   0.0000000   0.0000000  |     0.0000000   0.0000000   0.0000000
     0.2500000   0.2500000   0.2500000  |     0.2500000   0.2500000   0.2500000
     0.0000000   0.0000000   0.0000000  |     0.0000000   0.0000000   0.0000000
     0.2500000   0.2500000   0.2500000  |     0.2500000   0.2500000   0.2500000
     0.0000000   0.0000000   0.0000000  |     0.0000000   0.0000000   0.0000000
     0.2500000   0.2500000   0.2500000  |     0.2500000   0.2500000   0.2500000
     0.0000000   0.0000000   0.0000000  |     0.0000000   0.0000000   0.0000000
     0.2500000   0.2500000   0.2500000  |     0.2500000   0.2500000   0.2500000
     0.0000000   0.0000000   0.0000000  |     0.0000000   0.0000000   0.0000000
     0.2500000   0.2500000   0.2500000  |     0.2500000   0.2500000   0.2500000
     0.0000000   0.0000000   0.0000000  |     0.0000000   0.0000000   0.0000000
     0.2500000   0.2500000   0.2500000  |     0.2500000   0.2500000   0.2500000
     0.0000000   0.0000000   0.0000000  |     0.0000000   0.0000000   0.0000000
     0.2500000   0.2500000   0.2500000  |     0.2500000   0.2500000   0.2500000
     0.0000000   0.0000000   0.0000000  |     0.0000000   0.0000000   0.0000000
     0.2500000   0.2500000   0.2500000  |     0.2500000   0.2500000   0.2500000
     0.0000000   0.0000000   0.0000000  |     0.0000000   0.0000000   0.0000000
     0.2500000   0.2500000   0.2500000  |     0.2500000   0.2500000   0.2500000
     0.0000000   0.0000000   0.0000000  |     0.0000000   0.0000000   0.0000000
     0.2500000   0.2500000   0.2500000  |     0.2500000   0.2500000   0.2500000
     0.0000000   0.0000000   0.0000000  |     0.0000000   0.0000000   0.0000000
     0.2500000   0.2500000   0.2500000  |     0.2500000   0.2500000   0.2500000
     0.0000000   0.0000000   0.0000000  |     0.0000000   0.0000000   0.0000000
     0.2500000   0.2500000   0.2500000  |     0.2500000   0.2500000   0.2500000
   znucl:                               |   znucl:
   14.00                                |   14.00
  pseudopotential atom type  1:         |  pseudopotential atom type  1:
  pspso   0 pspxc   1                   |  pspso   0 pspxc   1
  pspdat 940714 pspcod    1 zion   4.0  |  pspdat 940714 pspcod    1 zion   4.0
  xred:                                 |  xred:
     0.0000000   0.0000000   0.0000000  |     0.0000000   0.0000000   0.0000000
     0.2500000   0.2500000   0.2500000  |     0.2500000   0.2500000   0.2500000
 hdr_check:  Density/Potential file is OK for restart of calculation
================================================================================
ioarr: data read from disk file out_tbase3_DS1_DEN

================================================================================

 getcut: wavevector=  0.0000  0.0000  0.0000  ngfft=  30  30  30
         ecut(hartree)=     20.000   => boxcut(ratio)=   2.06518

 ewald : nr and ng are    3 and   11
 vtorho : nnsclo_now= 50, note that nnsclo,dbl_nnsclo,istep=  0 0  1
 leave_test : synchronization done...
 vtorho: loop on k-points and spins done in parallel
 symatm: atom number     1 is reached starting at atom
   1  2  1  2  1  2  1  2  1  2  1  2  1  2  1  2  1  2  1  2  1  2  1  2
   1  2  1  2  1  2  1  2  1  2  1  2  1  2  1  2  1  2  1  2  1  2  1  2
 symatm: atom number     2 is reached starting at atom
   2  1  2  1  2  1  2  1  2  1  2  1  2  1  2  1  2  1  2  1  2  1  2  1
   2  1  2  1  2  1  2  1  2  1  2  1  2  1  2  1  2  1  2  1  2  1  2  1
 ioarr: writing density data
ioarr: file name is out_tbase3_DS2_DEN
ioarr: data written to disk file out_tbase3_DS2_DEN
 leave_test : synchronization done...
================================================================================

 ----iterations are completed or convergence reached----


 outwf: write wavefunction to file out_tbase3_DS2_WFK, with accesswff -1
 leave_test : synchronization done...
 outwf with iomode: -1, cpu:     0.02, wall:     0.02

== END DATASET(S) ==============================================================
================================================================================
  
 -outvars: echo values of variables after computation  --------
            acell      1.0216000000E+01  1.0216000000E+01  1.0216000000E+01 Bohr
              amu      2.80855000E+01
           diemac      1.20000000E+01
             ecut      2.00000000E+01 Hartree
           enunit1          0
           enunit2          1
           etotal1    -8.8769974001E+00
            fcart1     0.0000000000E+00  0.0000000000E+00  0.0000000000E+00
                       0.0000000000E+00  0.0000000000E+00  0.0000000000E+00
           getden1          0
           getden2         -1
             iscf1          7
             iscf2         -2
           istwfk2       3    0    0    0    0    0    0    0    0    0
                         2    0    0    0    0    0    0    0    0    0
                         0    0    8    0    0    0    0    0    0    0
                         0    0    0    0    0    0    0    0    0    0
                       outvar_i_n : Printing only first  50 k-points.
           jdtset        1    2
              kpt1    -3.12500000E-02 -6.25000000E-02  0.00000000E+00
                      -3.12500000E-02 -1.25000000E-01  0.00000000E+00
                      -6.25000000E-02 -9.37500000E-02  0.00000000E+00
                      -3.12500000E-02 -9.37500000E-02  3.12500000E-02
                      -3.12500000E-02 -1.87500000E-01  0.00000000E+00
                      -6.25000000E-02 -1.56250000E-01  0.00000000E+00
                      -3.12500000E-02 -1.56250000E-01  3.12500000E-02
                      -9.37500000E-02 -1.25000000E-01  0.00000000E+00
                      -6.25000000E-02 -1.25000000E-01  3.12500000E-02
                      -3.12500000E-02 -1.25000000E-01  6.25000000E-02
                      -3.12500000E-02 -2.50000000E-01  0.00000000E+00
                      -6.25000000E-02 -2.18750000E-01  0.00000000E+00
                      -3.12500000E-02 -2.18750000E-01  3.12500000E-02
                      -9.37500000E-02 -1.87500000E-01  0.00000000E+00
                      -6.25000000E-02 -1.87500000E-01  3.12500000E-02
                      -3.12500000E-02 -1.87500000E-01  6.25000000E-02
                      -1.25000000E-01 -1.56250000E-01  0.00000000E+00
                      -9.37500000E-02 -1.56250000E-01  3.12500000E-02
                      -6.25000000E-02 -1.56250000E-01  6.25000000E-02
                      -3.12500000E-02 -1.56250000E-01  9.37500000E-02
                      -3.12500000E-02 -3.12500000E-01  0.00000000E+00
                      -6.25000000E-02 -2.81250000E-01  0.00000000E+00
                      -3.12500000E-02 -2.81250000E-01  3.12500000E-02
                      -9.37500000E-02 -2.50000000E-01  0.00000000E+00
                      -6.25000000E-02 -2.50000000E-01  3.12500000E-02
                      -3.12500000E-02 -2.50000000E-01  6.25000000E-02
                      -1.25000000E-01 -2.18750000E-01  0.00000000E+00
                      -9.37500000E-02 -2.18750000E-01  3.12500000E-02
                      -6.25000000E-02 -2.18750000E-01  6.25000000E-02
                      -3.12500000E-02 -2.18750000E-01  9.37500000E-02
                      -1.56250000E-01 -1.87500000E-01  0.00000000E+00
                      -1.25000000E-01 -1.87500000E-01  3.12500000E-02
                      -9.37500000E-02 -1.87500000E-01  6.25000000E-02
                      -6.25000000E-02 -1.87500000E-01  9.37500000E-02
                      -3.12500000E-02 -1.87500000E-01  1.25000000E-01
                      -3.12500000E-02 -3.75000000E-01  0.00000000E+00
                      -6.25000000E-02 -3.43750000E-01  0.00000000E+00
                      -3.12500000E-02 -3.43750000E-01  3.12500000E-02
                      -9.37500000E-02 -3.12500000E-01  0.00000000E+00
                      -6.25000000E-02 -3.12500000E-01  3.12500000E-02
                      -3.12500000E-02 -3.12500000E-01  6.25000000E-02
                      -1.25000000E-01 -2.81250000E-01  0.00000000E+00
                      -9.37500000E-02 -2.81250000E-01  3.12500000E-02
                      -6.25000000E-02 -2.81250000E-01  6.25000000E-02
                      -3.12500000E-02 -2.81250000E-01  9.37500000E-02
                      -1.56250000E-01 -2.50000000E-01  0.00000000E+00
                      -1.25000000E-01 -2.50000000E-01  3.12500000E-02
                      -9.37500000E-02 -2.50000000E-01  6.25000000E-02
                      -6.25000000E-02 -2.50000000E-01  9.37500000E-02
                      -3.12500000E-02 -2.50000000E-01  1.25000000E-01
              kpt2     5.00000000E-01  0.00000000E+00  0.00000000E+00
                       4.50000000E-01  0.00000000E+00  0.00000000E+00
                       4.00000000E-01  0.00000000E+00  0.00000000E+00
                       3.50000000E-01  0.00000000E+00  0.00000000E+00
                       3.00000000E-01  0.00000000E+00  0.00000000E+00
                       2.50000000E-01  0.00000000E+00  0.00000000E+00
                       2.00000000E-01  0.00000000E+00  0.00000000E+00
                       1.50000000E-01  0.00000000E+00  0.00000000E+00
                       1.00000000E-01  0.00000000E+00  0.00000000E+00
                       5.00000000E-02  0.00000000E+00  0.00000000E+00
                       0.00000000E+00  0.00000000E+00  0.00000000E+00
                       0.00000000E+00  4.16666667E-02  4.16666667E-02
                       0.00000000E+00  8.33333333E-02  8.33333333E-02
                       0.00000000E+00  1.25000000E-01  1.25000000E-01
                       0.00000000E+00  1.66666667E-01  1.66666667E-01
                       0.00000000E+00  2.08333333E-01  2.08333333E-01
                       0.00000000E+00  2.50000000E-01  2.50000000E-01
                       0.00000000E+00  2.91666667E-01  2.91666667E-01
                       0.00000000E+00  3.33333333E-01  3.33333333E-01
                       0.00000000E+00  3.75000000E-01  3.75000000E-01
                       0.00000000E+00  4.16666667E-01  4.16666667E-01
                       0.00000000E+00  4.58333333E-01  4.58333333E-01
                       0.00000000E+00  5.00000000E-01  5.00000000E-01
                       5.88235294E-02  5.29411765E-01  5.29411765E-01
                       1.17647059E-01  5.58823529E-01  5.58823529E-01
                       1.76470588E-01  5.88235294E-01  5.88235294E-01
                       2.35294118E-01  6.17647059E-01  6.17647059E-01
                       2.94117647E-01  6.47058824E-01  6.47058824E-01
                       3.52941176E-01  6.76470588E-01  6.76470588E-01
                       4.11764706E-01  7.05882353E-01  7.05882353E-01
                       4.70588235E-01  7.35294118E-01  7.35294118E-01
                       5.29411765E-01  7.64705882E-01  7.64705882E-01
                       5.88235294E-01  7.94117647E-01  7.94117647E-01
                       6.47058824E-01  8.23529412E-01  8.23529412E-01
                       7.05882353E-01  8.52941176E-01  8.52941176E-01
                       7.64705882E-01  8.82352941E-01  8.82352941E-01
                       8.23529412E-01  9.11764706E-01  9.11764706E-01
                       8.82352941E-01  9.41176471E-01  9.41176471E-01
                       9.41176471E-01  9.70588235E-01  9.70588235E-01
                       1.00000000E+00  1.00000000E+00  1.00000000E+00
                       outvar_i_n : Printing only first  50 k-points.
           kptopt1          1
           kptopt2         -3
         kptrlatt       16  -16   16    -16   16   16    -16  -16   16
          kptrlen1     1.63456000E+02
          kptrlen2     3.00000000E+01
P           mkmem1        408
P           mkmem2         40
            natom           2
            nband1          5
            nband2         10
           nbdbuf1          0
           nbdbuf2          2
           ndtset           2
            ngfft          30      30      30
             nkpt1        408
             nkpt2         40
            nstep          50
             nsym          48
           ntypat           1
              occ      2.000000  2.000000  2.000000  2.000000  0.000000
        optforces           1
            rprim      0.0000000000E+00  5.0000000000E-01  5.0000000000E-01
                       5.0000000000E-01  0.0000000000E+00  5.0000000000E-01
                       5.0000000000E-01  5.0000000000E-01  0.0000000000E+00
           shiftk      5.00000000E-01  5.00000000E-01  5.00000000E-01
          spgroup         227
           strten1     1.4847779110E-05  1.4847779110E-05  1.4847779110E-05
                       0.0000000000E+00  0.0000000000E+00  0.0000000000E+00
           symrel      1  0  0   0  1  0   0  0  1      -1  0  0   0 -1  0   0  0 -1
                       0 -1  1   0 -1  0   1 -1  0       0  1 -1   0  1  0  -1  1  0
                      -1  0  0  -1  0  1  -1  1  0       1  0  0   1  0 -1   1 -1  0
                       0  1 -1   1  0 -1   0  0 -1       0 -1  1  -1  0  1   0  0  1
                      -1  0  0  -1  1  0  -1  0  1       1  0  0   1 -1  0   1  0 -1
                       0 -1  1   1 -1  0   0 -1  0       0  1 -1  -1  1  0   0  1  0
                       1  0  0   0  0  1   0  1  0      -1  0  0   0  0 -1   0 -1  0
                       0  1 -1   0  0 -1   1  0 -1       0 -1  1   0  0  1  -1  0  1
                      -1  0  1  -1  1  0  -1  0  0       1  0 -1   1 -1  0   1  0  0
                       0 -1  0   1 -1  0   0 -1  1       0  1  0  -1  1  0   0  1 -1
                       1  0 -1   0  0 -1   0  1 -1      -1  0  1   0  0  1   0 -1  1
                       0  1  0   0  0  1   1  0  0       0 -1  0   0  0 -1  -1  0  0
                       1  0 -1   0  1 -1   0  0 -1      -1  0  1   0 -1  1   0  0  1
                       0 -1  0   0 -1  1   1 -1  0       0  1  0   0  1 -1  -1  1  0
                      -1  0  1  -1  0  0  -1  1  0       1  0 -1   1  0  0   1 -1  0
                       0  1  0   1  0  0   0  0  1       0 -1  0  -1  0  0   0  0 -1
                       0  0 -1   0  1 -1   1  0 -1       0  0  1   0 -1  1  -1  0  1
                       1 -1  0   0 -1  1   0 -1  0      -1  1  0   0  1 -1   0  1  0
                       0  0  1   1  0  0   0  1  0       0  0 -1  -1  0  0   0 -1  0
                      -1  1  0  -1  0  0  -1  0  1       1 -1  0   1  0  0   1  0 -1
                       0  0  1   0  1  0   1  0  0       0  0 -1   0 -1  0  -1  0  0
                       1 -1  0   0 -1  0   0 -1  1      -1  1  0   0  1  0   0  1 -1
                       0  0 -1   1  0 -1   0  1 -1       0  0  1  -1  0  1   0 -1  1
                      -1  1  0  -1  0  1  -1  0  0       1 -1  0   1  0 -1   1  0  0
            tnons      0.0000000  0.0000000  0.0000000     0.2500000  0.2500000  0.2500000
                       0.0000000  0.0000000  0.0000000     0.2500000  0.2500000  0.2500000
                       0.0000000  0.0000000  0.0000000     0.2500000  0.2500000  0.2500000
                       0.0000000  0.0000000  0.0000000     0.2500000  0.2500000  0.2500000
                       0.0000000  0.0000000  0.0000000     0.2500000  0.2500000  0.2500000
                       0.0000000  0.0000000  0.0000000     0.2500000  0.2500000  0.2500000
                       0.0000000  0.0000000  0.0000000     0.2500000  0.2500000  0.2500000
                       0.0000000  0.0000000  0.0000000     0.2500000  0.2500000  0.2500000
                       0.0000000  0.0000000  0.0000000     0.2500000  0.2500000  0.2500000
                       0.0000000  0.0000000  0.0000000     0.2500000  0.2500000  0.2500000
                       0.0000000  0.0000000  0.0000000     0.2500000  0.2500000  0.2500000
                       0.0000000  0.0000000  0.0000000     0.2500000  0.2500000  0.2500000
                       0.0000000  0.0000000  0.0000000     0.2500000  0.2500000  0.2500000
                       0.0000000  0.0000000  0.0000000     0.2500000  0.2500000  0.2500000
                       0.0000000  0.0000000  0.0000000     0.2500000  0.2500000  0.2500000
                       0.0000000  0.0000000  0.0000000     0.2500000  0.2500000  0.2500000
                       0.0000000  0.0000000  0.0000000     0.2500000  0.2500000  0.2500000
                       0.0000000  0.0000000  0.0000000     0.2500000  0.2500000  0.2500000
                       0.0000000  0.0000000  0.0000000     0.2500000  0.2500000  0.2500000
                       0.0000000  0.0000000  0.0000000     0.2500000  0.2500000  0.2500000
                       0.0000000  0.0000000  0.0000000     0.2500000  0.2500000  0.2500000
                       0.0000000  0.0000000  0.0000000     0.2500000  0.2500000  0.2500000
                       0.0000000  0.0000000  0.0000000     0.2500000  0.2500000  0.2500000
                       0.0000000  0.0000000  0.0000000     0.2500000  0.2500000  0.2500000
           toldfe1     1.00000000E-09 Hartree
           toldfe2     0.00000000E+00 Hartree
           tolwfr1     0.00000000E+00
           tolwfr2     1.00000000E-12
            typat      1  1
              wtk1       0.00146    0.00146    0.00146    0.00293    0.00146    0.00146
                         0.00293    0.00146    0.00293    0.00293    0.00146    0.00146
                         0.00293    0.00146    0.00293    0.00293    0.00146    0.00293
                         0.00293    0.00293    0.00146    0.00146    0.00293    0.00146
                         0.00293    0.00293    0.00146    0.00293    0.00293    0.00293
                         0.00146    0.00293    0.00293    0.00293    0.00293    0.00146
                         0.00146    0.00293    0.00146    0.00293    0.00293    0.00146
                         0.00293    0.00293    0.00293    0.00146    0.00293    0.00293
                         0.00293    0.00293
              wtk2       1.00000    1.00000    1.00000    1.00000    1.00000    1.00000
                         1.00000    1.00000    1.00000    1.00000    1.00000    1.00000
                         1.00000    1.00000    1.00000    1.00000    1.00000    1.00000
                         1.00000    1.00000    1.00000    1.00000    1.00000    1.00000
                         1.00000    1.00000    1.00000    1.00000    1.00000    1.00000
                         1.00000    1.00000    1.00000    1.00000    1.00000    1.00000
                         1.00000    1.00000    1.00000    1.00000
                       outvars : Printing only first  50 k-points.
           xangst      0.0000000000E+00  0.0000000000E+00  0.0000000000E+00
                       1.3515185907E+00  1.3515185907E+00  1.3515185907E+00
            xcart      0.0000000000E+00  0.0000000000E+00  0.0000000000E+00
                       2.5540000000E+00  2.5540000000E+00  2.5540000000E+00
             xred      0.0000000000E+00  0.0000000000E+00  0.0000000000E+00
                       2.5000000000E-01  2.5000000000E-01  2.5000000000E-01
            znucl       14.00000

================================================================================
  

================================================================================

 Suggested references for the acknowledgment of ABINIT usage.

 The users of ABINIT have little formal obligations with respect to the ABINIT group
 (those specified in the GNU General Public License, http://www.gnu.org/copyleft/gpl.txt).
 However, it is common practice in the scientific literature,
 to acknowledge the efforts of people that have made the research possible.
 In this spirit, please find below suggested citations of work written by ABINIT developers,
 corresponding to implementations inside of ABINIT that you have used in the present run.
 Note also that it will be of great value to readers of publications presenting these results,
 to read papers enabling them to understand the theoretical formalism and details
 of the ABINIT implementation.
 For information on why they are suggested, see also http://www.abinit.org/about/?text=acknowledgments.

 [1] ABINIT : First-principles approach of materials and nanosystem properties.
 X. Gonze, B. Amadon, P.-M. Anglade, J.-M. Beuken, F. Bottin, P. Boulanger, F. Bruneval,
 D. Caliste, R. Caracas, M. Cote, T. Deutsch, L. Genovese, Ph. Ghosez, M. Giantomassi
 S. Goedecker, D.R. Hamann, P. Hermet, F. Jollet, G. Jomard, S. Leroux, M. Mancini, S. Mazevet,
 M.J.T. Oliveira, G. Onida, Y. Pouillon, T. Rangel, G.-M. Rignanese, D. Sangalli, R. Shaltaf,
 M. Torrent, M.J. Verstraete, G. Zerah, J.W. Zwanziger
 Computer Phys. Comm. 180, 2582-2615 (2009).
 Comment : the third generic paper describing the ABINIT project.
 Note that a version of this paper, that is not formatted for Computer Phys. Comm. 
 is available at http://www.abinit.org/about/ABINIT_CPC_v10.pdf .
 The licence allows the authors to put it on the Web.

 [2] A brief introduction to the ABINIT software package.
 X. Gonze, G.-M. Rignanese, M. Verstraete, J.-M. Beuken, Y. Pouillon, R. Caracas, F. Jollet,
 M. Torrent, G. Zerah, M. Mikami, Ph. Ghosez, M. Veithen, J.-Y. Raty, V. Olevano, F. Bruneval,
 L. Reining, R. Godby, G. Onida, D.R. Hamann, and D.C. Allan.
 Z. Kristallogr. 220, 558-562 (2005).
 Comment : the second generic paper describing the ABINIT project. Note that this paper
 should be cited especially if you are using the GW part of ABINIT, as several authors
 of this part are not in the list of authors of the first or third paper.
 The .pdf of the latter paper is available at http://www.abinit.org/about/zfk_0505-06_558-562.pdf.
 Note that it should not redistributed (Copyright by Oldenburg Wissenshaftverlag,
 the licence allows the authors to put it on the Web).


 And optionally :

 [3] First-principles computation of material properties : the ABINIT software project. 
 X. Gonze, J.-M. Beuken, R. Caracas, F. Detraux, M. Fuchs, G.-M. Rignanese, L. Sindic,
 M. Verstraete, G. Zerah, F. Jollet, M. Torrent, A. Roy, M. Mikami, Ph. Ghosez, J.-Y. Raty, D.C. Allan.
 Computational Materials Science 25, 478-492 (2002). http://dx.doi.org/10.1016/S0927-0256(02)00325-7
 Comment : the original paper describing the ABINIT project.

 [4] Fast radix 2, 3, 4 and 5 kernels for Fast Fourier Transformations
 on computers with overlapping multiply-add instructions.
 S. Goedecker, SIAM J. on Scientific Computing 18, 1605 (1997).
 Proc.   0 individual time (sec): cpu=         96.5  wall=         97.6

 Calculation completed.
.Delivered    2 WARNINGs and   4 COMMENTs to log file.
 
TACC: Shutdown complete. Exiting.
