
.Version 7.2.2 of ABINIT 
.(MPI version, prepared for a x86_64_linux_intel13.1 computer) 

.Copyright (C) 1998-2013 ABINIT group . 
 ABINIT comes with ABSOLUTELY NO WARRANTY.
 It is free software, and you are welcome to redistribute it
 under certain conditions (GNU General Public License,
 see ~abinit/COPYING or http://www.gnu.org/copyleft/gpl.txt).

 ABINIT is a project of the Universite Catholique de Louvain,
 Corning Inc. and other collaborators, see ~abinit/doc/developers/contributors.txt .
 Please read ~abinit/doc/users/acknowledgments.html for suggested
 acknowledgments of the ABINIT effort.
 For more information, see http://www.abinit.org .

.Starting date : Tue 27 Aug 2013.
- ( at 14h37 )
  
- input  file    -> tbase3_1.in
- output file    -> tbase3_1.out
- root for input  files -> in_tbase3
- root for output files -> out_tbase3


 DATASET    1 : space group Fd -3 m (#227); Bravais cF (face-center cubic)
================================================================================
 Values of the parameters that define the memory need for DATASET  1.
   intxc =         0  ionmov =         0    iscf =         7 xclevel =         1
  lmnmax =         2   lnmax =         2   mband =         5  mffmem =         1
P  mgfft =        30   mkmem =         4 mpssoang=         3     mpw =      1143
  mqgrid =      3001   natom =         2    nfft =     27000    nkpt =        60
  nloalg =         4  nspden =         1 nspinor =         1  nsppol =         1
    nsym =        48  n1xccc =      2501  ntypat =         1  occopt =         1
================================================================================
P This job should need less than                       8.815 Mbytes of memory.
  Rough estimation (10% accuracy) of disk space for files :
_ WF disk file :      5.234 Mbytes ; DEN or POT disk file :      0.208 Mbytes.
================================================================================


 DATASET    2 : space group Fd -3 m (#227); Bravais cF (face-center cubic)
================================================================================
 Values of the parameters that define the memory need for DATASET  2.
   intxc =         0  ionmov =         0    iscf =         7 xclevel =         1
  lmnmax =         2   lnmax =         2   mband =         5  mffmem =         1
P  mgfft =        30   mkmem =         4 mpssoang=         3     mpw =      1143
  mqgrid =      3001   natom =         2    nfft =     27000    nkpt =        60
  nloalg =         4  nspden =         1 nspinor =         1  nsppol =         1
    nsym =        48  n1xccc =      2501  ntypat =         1  occopt =         1
================================================================================
P This job should need less than                       8.815 Mbytes of memory.
  Rough estimation (10% accuracy) of disk space for files :
_ WF disk file :      5.234 Mbytes ; DEN or POT disk file :      0.208 Mbytes.
================================================================================


 DATASET    3 : space group Fd -3 m (#227); Bravais cF (face-center cubic)
================================================================================
 Values of the parameters that define the memory need for DATASET  3.
   intxc =         0  ionmov =         0    iscf =         7 xclevel =         1
  lmnmax =         2   lnmax =         2   mband =         5  mffmem =         1
P  mgfft =        30   mkmem =         4 mpssoang=         3     mpw =      1143
  mqgrid =      3001   natom =         2    nfft =     27000    nkpt =        60
  nloalg =         4  nspden =         1 nspinor =         1  nsppol =         1
    nsym =        48  n1xccc =      2501  ntypat =         1  occopt =         1
================================================================================
P This job should need less than                       8.815 Mbytes of memory.
  Rough estimation (10% accuracy) of disk space for files :
_ WF disk file :      5.234 Mbytes ; DEN or POT disk file :      0.208 Mbytes.
================================================================================


 DATASET    4 : space group Fd -3 m (#227); Bravais cF (face-center cubic)
================================================================================
 Values of the parameters that define the memory need for DATASET  4.
   intxc =         0  ionmov =         0    iscf =         7 xclevel =         1
  lmnmax =         2   lnmax =         2   mband =         5  mffmem =         1
P  mgfft =        30   mkmem =         4 mpssoang=         3     mpw =      1143
  mqgrid =      3001   natom =         2    nfft =     27000    nkpt =        60
  nloalg =         4  nspden =         1 nspinor =         1  nsppol =         1
    nsym =        48  n1xccc =      2501  ntypat =         1  occopt =         1
================================================================================
P This job should need less than                       8.815 Mbytes of memory.
  Rough estimation (10% accuracy) of disk space for files :
_ WF disk file :      5.234 Mbytes ; DEN or POT disk file :      0.208 Mbytes.
================================================================================


 DATASET    5 : space group Fd -3 m (#227); Bravais cF (face-center cubic)
================================================================================
 Values of the parameters that define the memory need for DATASET  5.
   intxc =         0  ionmov =         0    iscf =         7 xclevel =         1
  lmnmax =         2   lnmax =         2   mband =         5  mffmem =         1
P  mgfft =        30   mkmem =         4 mpssoang=         3     mpw =      1143
  mqgrid =      3001   natom =         2    nfft =     27000    nkpt =        60
  nloalg =         4  nspden =         1 nspinor =         1  nsppol =         1
    nsym =        48  n1xccc =      2501  ntypat =         1  occopt =         1
================================================================================
P This job should need less than                       8.815 Mbytes of memory.
  Rough estimation (10% accuracy) of disk space for files :
_ WF disk file :      5.234 Mbytes ; DEN or POT disk file :      0.208 Mbytes.
================================================================================


 DATASET    6 : space group Fd -3 m (#227); Bravais cF (face-center cubic)
================================================================================
 Values of the parameters that define the memory need for DATASET  6.
   intxc =         0  ionmov =         0    iscf =         7 xclevel =         1
  lmnmax =         2   lnmax =         2   mband =         5  mffmem =         1
P  mgfft =        30   mkmem =         4 mpssoang=         3     mpw =      1143
  mqgrid =      3001   natom =         2    nfft =     27000    nkpt =        60
  nloalg =         4  nspden =         1 nspinor =         1  nsppol =         1
    nsym =        48  n1xccc =      2501  ntypat =         1  occopt =         1
================================================================================
P This job should need less than                       8.815 Mbytes of memory.
  Rough estimation (10% accuracy) of disk space for files :
_ WF disk file :      5.234 Mbytes ; DEN or POT disk file :      0.208 Mbytes.
================================================================================


 DATASET    7 : space group Fd -3 m (#227); Bravais cF (face-center cubic)
================================================================================
 Values of the parameters that define the memory need for DATASET  7.
   intxc =         0  ionmov =         0    iscf =         7 xclevel =         1
  lmnmax =         2   lnmax =         2   mband =         5  mffmem =         1
P  mgfft =        30   mkmem =         4 mpssoang=         3     mpw =      1143
  mqgrid =      3001   natom =         2    nfft =     27000    nkpt =        60
  nloalg =         4  nspden =         1 nspinor =         1  nsppol =         1
    nsym =        48  n1xccc =      2501  ntypat =         1  occopt =         1
================================================================================
P This job should need less than                       8.815 Mbytes of memory.
  Rough estimation (10% accuracy) of disk space for files :
_ WF disk file :      5.234 Mbytes ; DEN or POT disk file :      0.208 Mbytes.
================================================================================


 DATASET    8 : space group Fd -3 m (#227); Bravais cF (face-center cubic)
================================================================================
 Values of the parameters that define the memory need for DATASET  8.
   intxc =         0  ionmov =         0    iscf =         7 xclevel =         1
  lmnmax =         2   lnmax =         2   mband =         5  mffmem =         1
P  mgfft =        30   mkmem =         4 mpssoang=         3     mpw =      1143
  mqgrid =      3001   natom =         2    nfft =     27000    nkpt =        60
  nloalg =         4  nspden =         1 nspinor =         1  nsppol =         1
    nsym =        48  n1xccc =      2501  ntypat =         1  occopt =         1
================================================================================
P This job should need less than                       8.815 Mbytes of memory.
  Rough estimation (10% accuracy) of disk space for files :
_ WF disk file :      5.234 Mbytes ; DEN or POT disk file :      0.208 Mbytes.
================================================================================


 DATASET    9 : space group Fd -3 m (#227); Bravais cF (face-center cubic)
================================================================================
 Values of the parameters that define the memory need for DATASET  9.
   intxc =         0  ionmov =         0    iscf =         7 xclevel =         1
  lmnmax =         2   lnmax =         2   mband =         5  mffmem =         1
P  mgfft =        30   mkmem =         4 mpssoang=         3     mpw =      1146
  mqgrid =      3001   natom =         2    nfft =     27000    nkpt =        60
  nloalg =         4  nspden =         1 nspinor =         1  nsppol =         1
    nsym =        48  n1xccc =      2501  ntypat =         1  occopt =         1
================================================================================
P This job should need less than                       8.817 Mbytes of memory.
  Rough estimation (10% accuracy) of disk space for files :
_ WF disk file :      5.248 Mbytes ; DEN or POT disk file :      0.208 Mbytes.
================================================================================


 DATASET   10 : space group Fd -3 m (#227); Bravais cF (face-center cubic)
================================================================================
 Values of the parameters that define the memory need for DATASET 10.
   intxc =         0  ionmov =         0    iscf =         7 xclevel =         1
  lmnmax =         2   lnmax =         2   mband =         5  mffmem =         1
P  mgfft =        30   mkmem =         4 mpssoang=         3     mpw =      1146
  mqgrid =      3001   natom =         2    nfft =     27000    nkpt =        60
  nloalg =         4  nspden =         1 nspinor =         1  nsppol =         1
    nsym =        48  n1xccc =      2501  ntypat =         1  occopt =         1
================================================================================
P This job should need less than                       8.817 Mbytes of memory.
  Rough estimation (10% accuracy) of disk space for files :
_ WF disk file :      5.248 Mbytes ; DEN or POT disk file :      0.208 Mbytes.
================================================================================


 DATASET   11 : space group Fd -3 m (#227); Bravais cF (face-center cubic)
================================================================================
 Values of the parameters that define the memory need for DATASET 11.
   intxc =         0  ionmov =         0    iscf =         7 xclevel =         1
  lmnmax =         2   lnmax =         2   mband =         5  mffmem =         1
P  mgfft =        30   mkmem =         4 mpssoang=         3     mpw =      1146
  mqgrid =      3001   natom =         2    nfft =     27000    nkpt =        60
  nloalg =         4  nspden =         1 nspinor =         1  nsppol =         1
    nsym =        48  n1xccc =      2501  ntypat =         1  occopt =         1
================================================================================
P This job should need less than                       8.817 Mbytes of memory.
  Rough estimation (10% accuracy) of disk space for files :
_ WF disk file :      5.248 Mbytes ; DEN or POT disk file :      0.208 Mbytes.
================================================================================


 DATASET   12 : space group Fd -3 m (#227); Bravais cF (face-center cubic)
================================================================================
 Values of the parameters that define the memory need for DATASET 12.
   intxc =         0  ionmov =         0    iscf =         7 xclevel =         1
  lmnmax =         2   lnmax =         2   mband =         5  mffmem =         1
P  mgfft =        30   mkmem =         4 mpssoang=         3     mpw =      1149
  mqgrid =      3001   natom =         2    nfft =     27000    nkpt =        60
  nloalg =         4  nspden =         1 nspinor =         1  nsppol =         1
    nsym =        48  n1xccc =      2501  ntypat =         1  occopt =         1
================================================================================
P This job should need less than                       8.819 Mbytes of memory.
  Rough estimation (10% accuracy) of disk space for files :
_ WF disk file :      5.262 Mbytes ; DEN or POT disk file :      0.208 Mbytes.
================================================================================


 DATASET   13 : space group Fd -3 m (#227); Bravais cF (face-center cubic)
================================================================================
 Values of the parameters that define the memory need for DATASET 13.
   intxc =         0  ionmov =         0    iscf =         7 xclevel =         1
  lmnmax =         2   lnmax =         2   mband =         5  mffmem =         1
P  mgfft =        30   mkmem =         4 mpssoang=         3     mpw =      1149
  mqgrid =      3001   natom =         2    nfft =     27000    nkpt =        60
  nloalg =         4  nspden =         1 nspinor =         1  nsppol =         1
    nsym =        48  n1xccc =      2501  ntypat =         1  occopt =         1
================================================================================
P This job should need less than                       8.819 Mbytes of memory.
  Rough estimation (10% accuracy) of disk space for files :
_ WF disk file :      5.262 Mbytes ; DEN or POT disk file :      0.208 Mbytes.
================================================================================


 DATASET   14 : space group Fd -3 m (#227); Bravais cF (face-center cubic)
================================================================================
 Values of the parameters that define the memory need for DATASET 14.
   intxc =         0  ionmov =         0    iscf =         7 xclevel =         1
  lmnmax =         2   lnmax =         2   mband =         5  mffmem =         1
P  mgfft =        30   mkmem =         4 mpssoang=         3     mpw =      1149
  mqgrid =      3001   natom =         2    nfft =     27000    nkpt =        60
  nloalg =         4  nspden =         1 nspinor =         1  nsppol =         1
    nsym =        48  n1xccc =      2501  ntypat =         1  occopt =         1
================================================================================
P This job should need less than                       8.819 Mbytes of memory.
  Rough estimation (10% accuracy) of disk space for files :
_ WF disk file :      5.262 Mbytes ; DEN or POT disk file :      0.208 Mbytes.
================================================================================


 DATASET   15 : space group Fd -3 m (#227); Bravais cF (face-center cubic)
================================================================================
 Values of the parameters that define the memory need for DATASET 15.
   intxc =         0  ionmov =         0    iscf =         7 xclevel =         1
  lmnmax =         2   lnmax =         2   mband =         5  mffmem =         1
P  mgfft =        30   mkmem =         4 mpssoang=         3     mpw =      1150
  mqgrid =      3001   natom =         2    nfft =     27000    nkpt =        60
  nloalg =         4  nspden =         1 nspinor =         1  nsppol =         1
    nsym =        48  n1xccc =      2501  ntypat =         1  occopt =         1
================================================================================
P This job should need less than                       8.820 Mbytes of memory.
  Rough estimation (10% accuracy) of disk space for files :
_ WF disk file :      5.266 Mbytes ; DEN or POT disk file :      0.208 Mbytes.
================================================================================


 DATASET   16 : space group Fd -3 m (#227); Bravais cF (face-center cubic)
================================================================================
 Values of the parameters that define the memory need for DATASET 16.
   intxc =         0  ionmov =         0    iscf =         7 xclevel =         1
  lmnmax =         2   lnmax =         2   mband =         5  mffmem =         1
P  mgfft =        30   mkmem =         4 mpssoang=         3     mpw =      1150
  mqgrid =      3001   natom =         2    nfft =     27000    nkpt =        60
  nloalg =         4  nspden =         1 nspinor =         1  nsppol =         1
    nsym =        48  n1xccc =      2501  ntypat =         1  occopt =         1
================================================================================
P This job should need less than                       8.820 Mbytes of memory.
  Rough estimation (10% accuracy) of disk space for files :
_ WF disk file :      5.266 Mbytes ; DEN or POT disk file :      0.208 Mbytes.
================================================================================


 DATASET   17 : space group Fd -3 m (#227); Bravais cF (face-center cubic)
================================================================================
 Values of the parameters that define the memory need for DATASET 17.
   intxc =         0  ionmov =         0    iscf =         7 xclevel =         1
  lmnmax =         2   lnmax =         2   mband =         5  mffmem =         1
P  mgfft =        30   mkmem =         4 mpssoang=         3     mpw =      1151
  mqgrid =      3001   natom =         2    nfft =     27000    nkpt =        60
  nloalg =         4  nspden =         1 nspinor =         1  nsppol =         1
    nsym =        48  n1xccc =      2501  ntypat =         1  occopt =         1
================================================================================
P This job should need less than                       8.820 Mbytes of memory.
  Rough estimation (10% accuracy) of disk space for files :
_ WF disk file :      5.271 Mbytes ; DEN or POT disk file :      0.208 Mbytes.
================================================================================

--------------------------------------------------------------------------------
------------- Echo of variables that govern the present computation ------------
--------------------------------------------------------------------------------
-
- outvars: echo of selected default values                                      
-   accesswff0 =  0 , fftalg0 =312 , wfoptalg0 =  0
-
- outvars: echo of global parameters not present in the input file              
-  max_nthreads =    1
-
 -outvars: echo values of preprocessed input variables --------
            acell1     1.0180000000E+01  1.0180000000E+01  1.0180000000E+01 Bohr
            acell2     1.0182000000E+01  1.0182000000E+01  1.0182000000E+01 Bohr
            acell3     1.0184000000E+01  1.0184000000E+01  1.0184000000E+01 Bohr
            acell4     1.0186000000E+01  1.0186000000E+01  1.0186000000E+01 Bohr
            acell5     1.0188000000E+01  1.0188000000E+01  1.0188000000E+01 Bohr
            acell6     1.0190000000E+01  1.0190000000E+01  1.0190000000E+01 Bohr
            acell7     1.0192000000E+01  1.0192000000E+01  1.0192000000E+01 Bohr
            acell8     1.0194000000E+01  1.0194000000E+01  1.0194000000E+01 Bohr
            acell9     1.0196000000E+01  1.0196000000E+01  1.0196000000E+01 Bohr
            acell10    1.0198000000E+01  1.0198000000E+01  1.0198000000E+01 Bohr
            acell11    1.0200000000E+01  1.0200000000E+01  1.0200000000E+01 Bohr
            acell12    1.0202000000E+01  1.0202000000E+01  1.0202000000E+01 Bohr
            acell13    1.0204000000E+01  1.0204000000E+01  1.0204000000E+01 Bohr
            acell14    1.0206000000E+01  1.0206000000E+01  1.0206000000E+01 Bohr
            acell15    1.0208000000E+01  1.0208000000E+01  1.0208000000E+01 Bohr
            acell16    1.0210000000E+01  1.0210000000E+01  1.0210000000E+01 Bohr
            acell17    1.0212000000E+01  1.0212000000E+01  1.0212000000E+01 Bohr
              amu      2.80855000E+01
           diemac      1.20000000E+01
             ecut      2.00000000E+01 Hartree
           jdtset        1    2    3    4    5    6    7    8    9   10
                        11   12   13   14   15   16   17
              kpt     -6.25000000E-02 -1.25000000E-01  0.00000000E+00
                      -6.25000000E-02 -2.50000000E-01  0.00000000E+00
                      -1.25000000E-01 -1.87500000E-01  0.00000000E+00
                      -6.25000000E-02 -1.87500000E-01  6.25000000E-02
                      -6.25000000E-02 -3.75000000E-01  0.00000000E+00
                      -1.25000000E-01 -3.12500000E-01  0.00000000E+00
                      -6.25000000E-02 -3.12500000E-01  6.25000000E-02
                      -1.87500000E-01 -2.50000000E-01  0.00000000E+00
                      -1.25000000E-01 -2.50000000E-01  6.25000000E-02
                      -6.25000000E-02 -2.50000000E-01  1.25000000E-01
                      -6.25000000E-02  5.00000000E-01  0.00000000E+00
                      -1.25000000E-01 -4.37500000E-01  0.00000000E+00
                      -6.25000000E-02 -4.37500000E-01  6.25000000E-02
                      -1.87500000E-01 -3.75000000E-01  0.00000000E+00
                      -1.25000000E-01 -3.75000000E-01  6.25000000E-02
                      -6.25000000E-02 -3.75000000E-01  1.25000000E-01
                      -2.50000000E-01 -3.12500000E-01  0.00000000E+00
                      -1.87500000E-01 -3.12500000E-01  6.25000000E-02
                      -1.25000000E-01 -3.12500000E-01  1.25000000E-01
                      -6.25000000E-02 -3.12500000E-01  1.87500000E-01
                      -6.25000000E-02  3.75000000E-01  0.00000000E+00
                      -1.25000000E-01  4.37500000E-01  0.00000000E+00
                      -1.87500000E-01  5.00000000E-01  0.00000000E+00
                      -1.25000000E-01  5.00000000E-01  6.25000000E-02
                      -2.50000000E-01 -4.37500000E-01  0.00000000E+00
                      -1.87500000E-01 -4.37500000E-01  6.25000000E-02
                      -1.25000000E-01 -4.37500000E-01  1.25000000E-01
                      -6.25000000E-02 -4.37500000E-01  1.87500000E-01
                      -3.12500000E-01 -3.75000000E-01  0.00000000E+00
                      -2.50000000E-01 -3.75000000E-01  6.25000000E-02
                      -1.87500000E-01 -3.75000000E-01  1.25000000E-01
                      -1.25000000E-01 -3.75000000E-01  1.87500000E-01
                      -6.25000000E-02 -3.75000000E-01  2.50000000E-01
                      -6.25000000E-02  2.50000000E-01  0.00000000E+00
                      -1.25000000E-01  3.12500000E-01  0.00000000E+00
                      -1.87500000E-01  3.75000000E-01  0.00000000E+00
                      -2.50000000E-01  4.37500000E-01  0.00000000E+00
                      -3.12500000E-01  5.00000000E-01  0.00000000E+00
                      -2.50000000E-01  5.00000000E-01  6.25000000E-02
                      -1.87500000E-01  5.00000000E-01  1.25000000E-01
                      -3.75000000E-01 -4.37500000E-01  0.00000000E+00
                      -3.12500000E-01 -4.37500000E-01  6.25000000E-02
                      -2.50000000E-01 -4.37500000E-01  1.25000000E-01
                      -1.87500000E-01 -4.37500000E-01  1.87500000E-01
                      -1.25000000E-01 -4.37500000E-01  2.50000000E-01
                      -6.25000000E-02 -4.37500000E-01  3.12500000E-01
                      -6.25000000E-02  1.25000000E-01  0.00000000E+00
                      -1.25000000E-01  1.87500000E-01  0.00000000E+00
                      -1.87500000E-01  2.50000000E-01  0.00000000E+00
                      -2.50000000E-01  3.12500000E-01  0.00000000E+00
                       outvar_i_n : Printing only first  50 k-points.
         kptrlatt        8   -8    8     -8    8    8     -8   -8    8
          kptrlen1     8.14400000E+01
          kptrlen2     8.14560000E+01
          kptrlen3     8.14720000E+01
          kptrlen4     8.14880000E+01
          kptrlen5     8.15040000E+01
          kptrlen6     8.15200000E+01
          kptrlen7     8.15360000E+01
          kptrlen8     8.15520000E+01
          kptrlen9     8.15680000E+01
          kptrlen10    8.15840000E+01
          kptrlen11    8.16000000E+01
          kptrlen12    8.16160000E+01
          kptrlen13    8.16320000E+01
          kptrlen14    8.16480000E+01
          kptrlen15    8.16640000E+01
          kptrlen16    8.16800000E+01
          kptrlen17    8.16960000E+01
P           mkmem           4
            natom           2
            nband           5
           ndtset          17
            ngfft          30      30      30
             nkpt          60
-           npkpt          15
            nstep          25
             nsym          48
           ntypat           1
              occ      2.000000  2.000000  2.000000  2.000000  0.000000
        optforces           1
           prtden           0
           prteig           0
            rprim      0.0000000000E+00  5.0000000000E-01  5.0000000000E-01
                       5.0000000000E-01  0.0000000000E+00  5.0000000000E-01
                       5.0000000000E-01  5.0000000000E-01  0.0000000000E+00
           shiftk      5.00000000E-01  5.00000000E-01  5.00000000E-01
          spgroup         227
           symrel      1  0  0   0  1  0   0  0  1      -1  0  0   0 -1  0   0  0 -1
                       0 -1  1   0 -1  0   1 -1  0       0  1 -1   0  1  0  -1  1  0
                      -1  0  0  -1  0  1  -1  1  0       1  0  0   1  0 -1   1 -1  0
                       0  1 -1   1  0 -1   0  0 -1       0 -1  1  -1  0  1   0  0  1
                      -1  0  0  -1  1  0  -1  0  1       1  0  0   1 -1  0   1  0 -1
                       0 -1  1   1 -1  0   0 -1  0       0  1 -1  -1  1  0   0  1  0
                       1  0  0   0  0  1   0  1  0      -1  0  0   0  0 -1   0 -1  0
                       0  1 -1   0  0 -1   1  0 -1       0 -1  1   0  0  1  -1  0  1
                      -1  0  1  -1  1  0  -1  0  0       1  0 -1   1 -1  0   1  0  0
                       0 -1  0   1 -1  0   0 -1  1       0  1  0  -1  1  0   0  1 -1
                       1  0 -1   0  0 -1   0  1 -1      -1  0  1   0  0  1   0 -1  1
                       0  1  0   0  0  1   1  0  0       0 -1  0   0  0 -1  -1  0  0
                       1  0 -1   0  1 -1   0  0 -1      -1  0  1   0 -1  1   0  0  1
                       0 -1  0   0 -1  1   1 -1  0       0  1  0   0  1 -1  -1  1  0
                      -1  0  1  -1  0  0  -1  1  0       1  0 -1   1  0  0   1 -1  0
                       0  1  0   1  0  0   0  0  1       0 -1  0  -1  0  0   0  0 -1
                       0  0 -1   0  1 -1   1  0 -1       0  0  1   0 -1  1  -1  0  1
                       1 -1  0   0 -1  1   0 -1  0      -1  1  0   0  1 -1   0  1  0
                       0  0  1   1  0  0   0  1  0       0  0 -1  -1  0  0   0 -1  0
                      -1  1  0  -1  0  0  -1  0  1       1 -1  0   1  0  0   1  0 -1
                       0  0  1   0  1  0   1  0  0       0  0 -1   0 -1  0  -1  0  0
                       1 -1  0   0 -1  0   0 -1  1      -1  1  0   0  1  0   0  1 -1
                       0  0 -1   1  0 -1   0  1 -1       0  0  1  -1  0  1   0 -1  1
                      -1  1  0  -1  0  1  -1  0  0       1 -1  0   1  0 -1   1  0  0
            tnons      0.0000000  0.0000000  0.0000000     0.2500000  0.2500000  0.2500000
                       0.0000000  0.0000000  0.0000000     0.2500000  0.2500000  0.2500000
                       0.0000000  0.0000000  0.0000000     0.2500000  0.2500000  0.2500000
                       0.0000000  0.0000000  0.0000000     0.2500000  0.2500000  0.2500000
                       0.0000000  0.0000000  0.0000000     0.2500000  0.2500000  0.2500000
                       0.0000000  0.0000000  0.0000000     0.2500000  0.2500000  0.2500000
                       0.0000000  0.0000000  0.0000000     0.2500000  0.2500000  0.2500000
                       0.0000000  0.0000000  0.0000000     0.2500000  0.2500000  0.2500000
                       0.0000000  0.0000000  0.0000000     0.2500000  0.2500000  0.2500000
                       0.0000000  0.0000000  0.0000000     0.2500000  0.2500000  0.2500000
                       0.0000000  0.0000000  0.0000000     0.2500000  0.2500000  0.2500000
                       0.0000000  0.0000000  0.0000000     0.2500000  0.2500000  0.2500000
                       0.0000000  0.0000000  0.0000000     0.2500000  0.2500000  0.2500000
                       0.0000000  0.0000000  0.0000000     0.2500000  0.2500000  0.2500000
                       0.0000000  0.0000000  0.0000000     0.2500000  0.2500000  0.2500000
                       0.0000000  0.0000000  0.0000000     0.2500000  0.2500000  0.2500000
                       0.0000000  0.0000000  0.0000000     0.2500000  0.2500000  0.2500000
                       0.0000000  0.0000000  0.0000000     0.2500000  0.2500000  0.2500000
                       0.0000000  0.0000000  0.0000000     0.2500000  0.2500000  0.2500000
                       0.0000000  0.0000000  0.0000000     0.2500000  0.2500000  0.2500000
                       0.0000000  0.0000000  0.0000000     0.2500000  0.2500000  0.2500000
                       0.0000000  0.0000000  0.0000000     0.2500000  0.2500000  0.2500000
                       0.0000000  0.0000000  0.0000000     0.2500000  0.2500000  0.2500000
                       0.0000000  0.0000000  0.0000000     0.2500000  0.2500000  0.2500000
           toldfe      1.00000000E-10 Hartree
            typat      1  1
              wtk        0.01172    0.01172    0.01172    0.02344    0.01172    0.01172
                         0.02344    0.01172    0.02344    0.02344    0.01172    0.01172
                         0.02344    0.01172    0.02344    0.02344    0.01172    0.02344
                         0.02344    0.02344    0.01172    0.01172    0.01172    0.02344
                         0.01172    0.02344    0.02344    0.02344    0.01172    0.02344
                         0.02344    0.02344    0.02344    0.01172    0.01172    0.01172
                         0.01172    0.01172    0.02344    0.02344    0.01172    0.02344
                         0.02344    0.02344    0.02344    0.02344    0.01172    0.01172
                         0.01172    0.01172
                       outvars : Printing only first  50 k-points.
           xangst1     0.0000000000E+00  0.0000000000E+00  0.0000000000E+00
                       1.3467559959E+00  1.3467559959E+00  1.3467559959E+00
           xangst2     0.0000000000E+00  0.0000000000E+00  0.0000000000E+00
                       1.3470205845E+00  1.3470205845E+00  1.3470205845E+00
           xangst3     0.0000000000E+00  0.0000000000E+00  0.0000000000E+00
                       1.3472851731E+00  1.3472851731E+00  1.3472851731E+00
           xangst4     0.0000000000E+00  0.0000000000E+00  0.0000000000E+00
                       1.3475497617E+00  1.3475497617E+00  1.3475497617E+00
           xangst5     0.0000000000E+00  0.0000000000E+00  0.0000000000E+00
                       1.3478143503E+00  1.3478143503E+00  1.3478143503E+00
           xangst6     0.0000000000E+00  0.0000000000E+00  0.0000000000E+00
                       1.3480789389E+00  1.3480789389E+00  1.3480789389E+00
           xangst7     0.0000000000E+00  0.0000000000E+00  0.0000000000E+00
                       1.3483435275E+00  1.3483435275E+00  1.3483435275E+00
           xangst8     0.0000000000E+00  0.0000000000E+00  0.0000000000E+00
                       1.3486081161E+00  1.3486081161E+00  1.3486081161E+00
           xangst9     0.0000000000E+00  0.0000000000E+00  0.0000000000E+00
                       1.3488727047E+00  1.3488727047E+00  1.3488727047E+00
           xangst10    0.0000000000E+00  0.0000000000E+00  0.0000000000E+00
                       1.3491372933E+00  1.3491372933E+00  1.3491372933E+00
           xangst11    0.0000000000E+00  0.0000000000E+00  0.0000000000E+00
                       1.3494018819E+00  1.3494018819E+00  1.3494018819E+00
           xangst12    0.0000000000E+00  0.0000000000E+00  0.0000000000E+00
                       1.3496664705E+00  1.3496664705E+00  1.3496664705E+00
           xangst13    0.0000000000E+00  0.0000000000E+00  0.0000000000E+00
                       1.3499310591E+00  1.3499310591E+00  1.3499310591E+00
           xangst14    0.0000000000E+00  0.0000000000E+00  0.0000000000E+00
                       1.3501956477E+00  1.3501956477E+00  1.3501956477E+00
           xangst15    0.0000000000E+00  0.0000000000E+00  0.0000000000E+00
                       1.3504602363E+00  1.3504602363E+00  1.3504602363E+00
           xangst16    0.0000000000E+00  0.0000000000E+00  0.0000000000E+00
                       1.3507248249E+00  1.3507248249E+00  1.3507248249E+00
           xangst17    0.0000000000E+00  0.0000000000E+00  0.0000000000E+00
                       1.3509894135E+00  1.3509894135E+00  1.3509894135E+00
            xcart1     0.0000000000E+00  0.0000000000E+00  0.0000000000E+00
                       2.5450000000E+00  2.5450000000E+00  2.5450000000E+00
            xcart2     0.0000000000E+00  0.0000000000E+00  0.0000000000E+00
                       2.5455000000E+00  2.5455000000E+00  2.5455000000E+00
            xcart3     0.0000000000E+00  0.0000000000E+00  0.0000000000E+00
                       2.5460000000E+00  2.5460000000E+00  2.5460000000E+00
            xcart4     0.0000000000E+00  0.0000000000E+00  0.0000000000E+00
                       2.5465000000E+00  2.5465000000E+00  2.5465000000E+00
            xcart5     0.0000000000E+00  0.0000000000E+00  0.0000000000E+00
                       2.5470000000E+00  2.5470000000E+00  2.5470000000E+00
            xcart6     0.0000000000E+00  0.0000000000E+00  0.0000000000E+00
                       2.5475000000E+00  2.5475000000E+00  2.5475000000E+00
            xcart7     0.0000000000E+00  0.0000000000E+00  0.0000000000E+00
                       2.5480000000E+00  2.5480000000E+00  2.5480000000E+00
            xcart8     0.0000000000E+00  0.0000000000E+00  0.0000000000E+00
                       2.5485000000E+00  2.5485000000E+00  2.5485000000E+00
            xcart9     0.0000000000E+00  0.0000000000E+00  0.0000000000E+00
                       2.5490000000E+00  2.5490000000E+00  2.5490000000E+00
            xcart10    0.0000000000E+00  0.0000000000E+00  0.0000000000E+00
                       2.5495000000E+00  2.5495000000E+00  2.5495000000E+00
            xcart11    0.0000000000E+00  0.0000000000E+00  0.0000000000E+00
                       2.5500000000E+00  2.5500000000E+00  2.5500000000E+00
            xcart12    0.0000000000E+00  0.0000000000E+00  0.0000000000E+00
                       2.5505000000E+00  2.5505000000E+00  2.5505000000E+00
            xcart13    0.0000000000E+00  0.0000000000E+00  0.0000000000E+00
                       2.5510000000E+00  2.5510000000E+00  2.5510000000E+00
            xcart14    0.0000000000E+00  0.0000000000E+00  0.0000000000E+00
                       2.5515000000E+00  2.5515000000E+00  2.5515000000E+00
            xcart15    0.0000000000E+00  0.0000000000E+00  0.0000000000E+00
                       2.5520000000E+00  2.5520000000E+00  2.5520000000E+00
            xcart16    0.0000000000E+00  0.0000000000E+00  0.0000000000E+00
                       2.5525000000E+00  2.5525000000E+00  2.5525000000E+00
            xcart17    0.0000000000E+00  0.0000000000E+00  0.0000000000E+00
                       2.5530000000E+00  2.5530000000E+00  2.5530000000E+00
             xred      0.0000000000E+00  0.0000000000E+00  0.0000000000E+00
                       2.5000000000E-01  2.5000000000E-01  2.5000000000E-01
            znucl       14.00000

================================================================================

 chkinp: Checking input parameters for consistency, jdtset=   1.

 chkinp: Checking input parameters for consistency, jdtset=   2.

 chkinp: Checking input parameters for consistency, jdtset=   3.

 chkinp: Checking input parameters for consistency, jdtset=   4.

 chkinp: Checking input parameters for consistency, jdtset=   5.

 chkinp: Checking input parameters for consistency, jdtset=   6.

 chkinp: Checking input parameters for consistency, jdtset=   7.

 chkinp: Checking input parameters for consistency, jdtset=   8.

 chkinp: Checking input parameters for consistency, jdtset=   9.

 chkinp: Checking input parameters for consistency, jdtset=  10.

 chkinp: Checking input parameters for consistency, jdtset=  11.

 chkinp: Checking input parameters for consistency, jdtset=  12.

 chkinp: Checking input parameters for consistency, jdtset=  13.

 chkinp: Checking input parameters for consistency, jdtset=  14.

 chkinp: Checking input parameters for consistency, jdtset=  15.

 chkinp: Checking input parameters for consistency, jdtset=  16.

 chkinp: Checking input parameters for consistency, jdtset=  17.

================================================================================
== DATASET  1 ==================================================================
-   nproc =   15

 Exchange-correlation functional for the present dataset will be:
  LDA: new Teter (4/93) with spin-polarized option - ixc=1
 Citation for XC functional:
  S. Goedecker, M. Teter, J. Huetter, PRB 54, 1703 (1996)
 
 Real(R)+Recip(G) space primitive vectors, cartesian coordinates (Bohr,Bohr^-1):
 R(1)=  0.0000000  5.0900000  5.0900000  G(1)= -0.0982318  0.0982318  0.0982318
 R(2)=  5.0900000  0.0000000  5.0900000  G(2)=  0.0982318 -0.0982318  0.0982318
 R(3)=  5.0900000  5.0900000  0.0000000  G(3)=  0.0982318  0.0982318 -0.0982318
 Unit cell volume ucvol=  2.6374446E+02 bohr^3
 Angles (23,13,12)=  6.00000000E+01  6.00000000E+01  6.00000000E+01 degrees

 getcut: wavevector=  0.0000  0.0000  0.0000  ngfft=  30  30  30
         ecut(hartree)=     20.000   => boxcut(ratio)=   2.07248

--- Pseudopotential description ------------------------------------------------
- pspini: atom type   1  psp file is /work/02288/mgs763/abinit-7.2.2_src/tests/Psps_for_tests/14si.pspnc
- pspatm: opening atomic psp file    /work/02288/mgs763/abinit-7.2.2_src/tests/Psps_for_tests/14si.pspnc
-  Troullier-Martins psp for element  Si        Thu Oct 27 17:31:21 EDT 1994
- 14.00000   4.00000    940714                znucl, zion, pspdat
    1    1    2    2      2001   0.00000      pspcod,pspxc,lmax,lloc,mmax,r2well
    0   5.907  14.692    1   2.0872718        l,e99.0,e99.9,nproj,rcpsp
   0.00000000   0.00000000   0.00000000   0.00000000     rms, ekb1, ekb2, epsatm
    1   2.617   4.181    1   2.0872718        l,e99.0,e99.9,nproj,rcpsp
   0.00000000   0.00000000   0.00000000   0.00000000     rms, ekb1, ekb2, epsatm
    2   0.000   0.000    0   2.0872718        l,e99.0,e99.9,nproj,rcpsp
   0.00000000   0.00000000   0.00000000   0.00000000     rms, ekb1, ekb2, epsatm
    1.80626423934776    0.22824404341771    1.17378968127746   rchrg,fchrg,qchrg
 pspatm: epsatm=    1.43386982
         --- l  ekb(1:nproj) -->
             0    3.287949
             1    1.849886
 pspatm: atomic psp has been read  and splines computed

   2.29419171E+01                                ecore*ucvol(ha*bohr**3)
--------------------------------------------------------------------------------

P newkpt: treating      5 bands with npw=    1133 for ikpt=   1 by node    0
P newkpt: treating      5 bands with npw=    1126 for ikpt=   2 by node    0
P newkpt: treating      5 bands with npw=    1135 for ikpt=   3 by node    0
P newkpt: treating      5 bands with npw=    1131 for ikpt=   4 by node    0
P newkpt: treating      5 bands with npw=    1126 for ikpt=   5 by node    1
P newkpt: treating      5 bands with npw=    1121 for ikpt=   6 by node    1
P newkpt: treating      5 bands with npw=    1121 for ikpt=   7 by node    1
P newkpt: treating      5 bands with npw=    1126 for ikpt=   8 by node    1
P newkpt: treating      5 bands with npw=    1124 for ikpt=   9 by node    2
P newkpt: treating      5 bands with npw=    1123 for ikpt=  10 by node    2
P newkpt: treating      5 bands with npw=    1135 for ikpt=  11 by node    2
P newkpt: treating      5 bands with npw=    1123 for ikpt=  12 by node    2
P newkpt: treating      5 bands with npw=    1128 for ikpt=  13 by node    3
P newkpt: treating      5 bands with npw=    1117 for ikpt=  14 by node    3
P newkpt: treating      5 bands with npw=    1123 for ikpt=  15 by node    3
P newkpt: treating      5 bands with npw=    1131 for ikpt=  16 by node    3
P newkpt: treating      5 bands with npw=    1118 for ikpt=  17 by node    4
P newkpt: treating      5 bands with npw=    1123 for ikpt=  18 by node    4
P newkpt: treating      5 bands with npw=    1125 for ikpt=  19 by node    4
P newkpt: treating      5 bands with npw=    1125 for ikpt=  20 by node    4
P newkpt: treating      5 bands with npw=    1130 for ikpt=  21 by node    5
P newkpt: treating      5 bands with npw=    1130 for ikpt=  22 by node    5
P newkpt: treating      5 bands with npw=    1125 for ikpt=  23 by node    5
P newkpt: treating      5 bands with npw=    1125 for ikpt=  24 by node    5
P newkpt: treating      5 bands with npw=    1123 for ikpt=  25 by node    6
P newkpt: treating      5 bands with npw=    1125 for ikpt=  26 by node    6
P newkpt: treating      5 bands with npw=    1128 for ikpt=  27 by node    6
P newkpt: treating      5 bands with npw=    1133 for ikpt=  28 by node    6
P newkpt: treating      5 bands with npw=    1121 for ikpt=  29 by node    7
P newkpt: treating      5 bands with npw=    1122 for ikpt=  30 by node    7
P newkpt: treating      5 bands with npw=    1127 for ikpt=  31 by node    7
P newkpt: treating      5 bands with npw=    1128 for ikpt=  32 by node    7
P newkpt: treating      5 bands with npw=    1127 for ikpt=  33 by node    8
P newkpt: treating      5 bands with npw=    1122 for ikpt=  34 by node    8
P newkpt: treating      5 bands with npw=    1126 for ikpt=  35 by node    8
P newkpt: treating      5 bands with npw=    1130 for ikpt=  36 by node    8
P newkpt: treating      5 bands with npw=    1130 for ikpt=  37 by node    9
P newkpt: treating      5 bands with npw=    1126 for ikpt=  38 by node    9
P newkpt: treating      5 bands with npw=    1126 for ikpt=  39 by node    9
P newkpt: treating      5 bands with npw=    1128 for ikpt=  40 by node    9
P newkpt: treating      5 bands with npw=    1122 for ikpt=  41 by node   10
P newkpt: treating      5 bands with npw=    1123 for ikpt=  42 by node   10
P newkpt: treating      5 bands with npw=    1122 for ikpt=  43 by node   10
P newkpt: treating      5 bands with npw=    1125 for ikpt=  44 by node   10
P newkpt: treating      5 bands with npw=    1126 for ikpt=  45 by node   11
P newkpt: treating      5 bands with npw=    1128 for ikpt=  46 by node   11
P newkpt: treating      5 bands with npw=    1139 for ikpt=  47 by node   11
P newkpt: treating      5 bands with npw=    1127 for ikpt=  48 by node   11
P newkpt: treating      5 bands with npw=    1125 for ikpt=  49 by node   12
P newkpt: treating      5 bands with npw=    1125 for ikpt=  50 by node   12
 newkpt: prtvol=0 or 1, do not print more k-points.
 
_setup2: Arith. and geom. avg. npw (full set) are    1126.602    1126.594

================================================================================

     iter   Etot(hartree)      deltaE(h)  residm     vres2    diffor    maxfor
 ETOT  1  -8.8700811437539    -8.870E+00 1.969E-02 2.042E+01 0.000E+00 0.000E+00
 ETOT  2  -8.8769137477997    -6.833E-03 1.466E-03 5.217E-01 0.000E+00 0.000E+00
 ETOT  3  -8.8769890188497    -7.527E-05 1.696E-04 1.020E-02 0.000E+00 0.000E+00
 ETOT  4  -8.8769899552108    -9.364E-07 6.784E-05 4.258E-05 0.000E+00 0.000E+00
 ETOT  5  -8.8769899608852    -5.674E-09 1.761E-05 6.400E-08 0.000E+00 0.000E+00
 ETOT  6  -8.8769899608978    -1.261E-11 5.468E-05 4.975E-10 0.000E+00 0.000E+00
 ETOT  7  -8.8769899608979    -6.573E-14 7.423E-06 1.689E-12 0.000E+00 0.000E+00

 At SCF step    7, etot is converged : 
  for the second time, diff in etot=  6.573E-14 < toldfe=  1.000E-10

 Cartesian components of stress tensor (hartree/bohr^3)
  sigma(1 1)= -1.98933971E-05  sigma(3 2)=  0.00000000E+00
  sigma(2 2)= -1.98933971E-05  sigma(3 1)=  0.00000000E+00
  sigma(3 3)= -1.98933971E-05  sigma(2 1)=  0.00000000E+00
 
================================================================================

 ----iterations are completed or convergence reached----

 Mean square residual over all n,k,spin=   3.1892E-08; max=  7.4227E-06
  -0.0625 -0.1250  0.0000    1  3.96743E-10 kpt; spin; max resid(k); each band:
  3.06E-16 1.16E-16 8.72E-17 1.74E-16 3.97E-10
  -0.0625 -0.2500  0.0000    1  2.13976E-11 kpt; spin; max resid(k); each band:
  6.03E-16 6.42E-16 3.80E-17 3.91E-16 2.14E-11
  -0.1250 -0.1875  0.0000    1  2.90219E-15 kpt; spin; max resid(k); each band:
  5.70E-16 1.03E-16 4.35E-17 2.52E-16 2.90E-15
  -0.0625 -0.1875  0.0625    1  7.02964E-10 kpt; spin; max resid(k); each band:
  5.48E-16 1.99E-16 4.46E-16 1.07E-16 7.03E-10
  -0.0625 -0.3750  0.0000    1  2.12483E-13 kpt; spin; max resid(k); each band:
  5.26E-16 1.07E-15 2.10E-17 3.25E-16 2.12E-13
  -0.1250 -0.3125  0.0000    1  6.17556E-14 kpt; spin; max resid(k); each band:
  6.59E-16 4.45E-16 5.40E-16 2.82E-17 6.18E-14
  -0.0625 -0.3125  0.0625    1  9.31789E-11 kpt; spin; max resid(k); each band:
  5.84E-16 7.90E-16 4.26E-16 1.12E-16 9.32E-11
  -0.1875 -0.2500  0.0000    1  1.18486E-15 kpt; spin; max resid(k); each band:
  8.11E-16 7.13E-17 2.49E-16 2.81E-17 1.18E-15
  -0.1250 -0.2500  0.0625    1  1.41385E-15 kpt; spin; max resid(k); each band:
  6.98E-16 1.74E-16 5.10E-16 1.08E-16 1.41E-15
  -0.0625 -0.2500  0.1250    1  2.72713E-07 kpt; spin; max resid(k); each band:
  5.60E-16 3.68E-16 5.76E-16 9.10E-17 2.73E-07
  -0.0625  0.5000  0.0000    1  1.51648E-13 kpt; spin; max resid(k); each band:
  5.64E-17 1.54E-15 2.79E-16 1.47E-17 1.52E-13
  -0.1250 -0.4375  0.0000    1  2.49721E-13 kpt; spin; max resid(k); each band:
  4.55E-16 8.11E-16 4.32E-16 2.23E-17 2.50E-13
  -0.0625 -0.4375  0.0625    1  2.99661E-12 kpt; spin; max resid(k); each band:
  2.25E-16 1.28E-15 4.34E-16 4.36E-17 3.00E-12
  -0.1875 -0.3750  0.0000    1  1.00786E-15 kpt; spin; max resid(k); each band:
  6.73E-16 3.93E-16 4.54E-16 2.28E-17 1.01E-15
  -0.1250 -0.3750  0.0625    1  2.93596E-14 kpt; spin; max resid(k); each band:
  5.66E-16 5.50E-16 5.05E-16 9.84E-17 2.94E-14
  -0.0625 -0.3750  0.1250    1  4.29943E-10 kpt; spin; max resid(k); each band:
  2.22E-16 9.86E-16 3.93E-16 1.45E-16 4.30E-10
  -0.2500 -0.3125  0.0000    1  1.71246E-15 kpt; spin; max resid(k); each band:
  9.01E-16 3.99E-17 2.24E-16 2.30E-17 1.71E-15
  -0.1875 -0.3125  0.0625    1  1.74808E-14 kpt; spin; max resid(k); each band:
  7.70E-16 1.33E-16 5.20E-16 8.37E-17 1.75E-14
  -0.1250 -0.3125  0.1250    1  6.72088E-12 kpt; spin; max resid(k); each band:
  6.67E-16 2.03E-16 7.30E-16 1.38E-16 6.72E-12
  -0.0625 -0.3125  0.1875    1  1.87078E-13 kpt; spin; max resid(k); each band:
  2.21E-16 6.03E-16 3.00E-16 2.40E-16 1.87E-13
  -0.0625  0.3750  0.0000    1  5.46466E-15 kpt; spin; max resid(k); each band:
  3.72E-16 1.25E-15 2.56E-16 1.58E-17 5.46E-15
  -0.1250  0.4375  0.0000    1  1.89378E-13 kpt; spin; max resid(k); each band:
  4.25E-17 1.27E-15 3.75E-16 1.83E-17 1.89E-13
  -0.1875  0.5000  0.0000    1  7.19371E-16 kpt; spin; max resid(k); each band:
  3.31E-16 7.19E-16 4.04E-16 2.11E-17 6.29E-16
  -0.1250  0.5000  0.0625    1  3.24585E-12 kpt; spin; max resid(k); each band:
  1.43E-16 9.36E-16 4.38E-16 1.40E-16 3.25E-12
  -0.2500 -0.4375  0.0000    1  1.62007E-15 kpt; spin; max resid(k); each band:
  6.12E-16 3.28E-16 3.13E-16 2.10E-17 1.62E-15
  -0.1875 -0.4375  0.0625    1  9.12066E-16 kpt; spin; max resid(k); each band:
  4.81E-16 5.02E-16 4.11E-16 1.95E-16 9.12E-16
  -0.1250 -0.4375  0.1250    1  7.68369E-08 kpt; spin; max resid(k); each band:
  3.17E-16 6.30E-16 5.68E-16 3.08E-16 7.68E-08
  -0.0625 -0.4375  0.1875    1  2.15512E-15 kpt; spin; max resid(k); each band:
  9.57E-17 8.10E-16 3.83E-16 2.53E-16 2.16E-15
  -0.3125 -0.3750  0.0000    1  5.83275E-14 kpt; spin; max resid(k); each band:
  8.54E-16 2.94E-17 1.92E-16 2.17E-17 5.83E-14
  -0.2500 -0.3750  0.0625    1  1.89560E-13 kpt; spin; max resid(k); each band:
  7.51E-16 8.39E-17 4.24E-16 1.13E-16 1.90E-13
  -0.1875 -0.3750  0.1250    1  1.92126E-12 kpt; spin; max resid(k); each band:
  6.22E-16 1.54E-16 6.38E-16 2.40E-16 1.92E-12
  -0.1250 -0.3750  0.1875    1  1.14357E-08 kpt; spin; max resid(k); each band:
  1.71E-16 4.65E-16 2.57E-16 6.95E-16 1.14E-08
  -0.0625 -0.3750  0.2500    1  1.00463E-15 kpt; spin; max resid(k); each band:
  1.13E-16 6.11E-16 2.08E-16 2.93E-16 1.00E-15
  -0.0625  0.2500  0.0000    1  1.62148E-13 kpt; spin; max resid(k); each band:
  5.58E-16 8.29E-16 2.57E-16 1.53E-17 1.62E-13
  -0.1250  0.3125  0.0000    1  1.18403E-13 kpt; spin; max resid(k); each band:
  3.28E-16 9.96E-16 3.49E-16 1.85E-17 1.18E-13
  -0.1875  0.3750  0.0000    1  8.99902E-16 kpt; spin; max resid(k); each band:
  1.21E-16 9.00E-16 3.89E-16 2.02E-17 8.70E-16
  -0.2500  0.4375  0.0000    1  7.14998E-16 kpt; spin; max resid(k); each band:
  2.21E-16 7.15E-16 3.32E-16 2.05E-17 6.36E-16
  -0.3125  0.5000  0.0000    1  1.36282E-15 kpt; spin; max resid(k); each band:
  4.80E-16 3.43E-16 1.67E-16 2.15E-17 1.36E-15
  -0.2500  0.5000  0.0625    1  9.49258E-16 kpt; spin; max resid(k); each band:
  3.30E-16 4.60E-16 2.46E-16 2.78E-16 9.49E-16
  -0.1875  0.5000  0.1250    1  1.35182E-12 kpt; spin; max resid(k); each band:
  2.22E-16 5.47E-16 3.56E-16 6.03E-16 1.35E-12
  -0.3750 -0.4375  0.0000    1  2.51625E-11 kpt; spin; max resid(k); each band:
  7.65E-16 5.55E-17 1.57E-16 2.23E-17 2.52E-11
  -0.3125 -0.4375  0.0625    1  1.90306E-13 kpt; spin; max resid(k); each band:
  6.20E-16 1.17E-16 2.53E-16 2.22E-16 1.90E-13
  -0.2500 -0.4375  0.1250    1  2.43701E-12 kpt; spin; max resid(k); each band:
  4.81E-16 1.30E-16 3.96E-16 4.48E-16 2.44E-12
  -0.1875 -0.4375  0.1875    1  2.81693E-08 kpt; spin; max resid(k); each band:
  2.91E-16 1.10E-16 4.86E-16 7.98E-16 2.82E-08
  -0.1250 -0.4375  0.2500    1  1.60244E-15 kpt; spin; max resid(k); each band:
  5.60E-17 4.51E-16 1.25E-16 7.15E-16 1.60E-15
  -0.0625 -0.4375  0.3125    1  1.01177E-15 kpt; spin; max resid(k); each band:
  1.42E-16 5.51E-16 7.71E-17 3.16E-16 1.01E-15
  -0.0625  0.1250  0.0000    1  1.74401E-06 kpt; spin; max resid(k); each band:
  3.72E-16 3.97E-16 3.07E-16 7.84E-18 1.74E-06
  -0.1250  0.1875  0.0000    1  9.85150E-09 kpt; spin; max resid(k); each band:
  3.38E-16 5.18E-16 3.26E-16 2.27E-17 9.85E-09
  -0.1875  0.2500  0.0000    1  7.09539E-15 kpt; spin; max resid(k); each band:
  2.48E-16 6.13E-16 3.06E-16 2.29E-17 7.10E-15
  -0.2500  0.3125  0.0000    1  8.49703E-16 kpt; spin; max resid(k); each band:
  1.79E-16 6.52E-16 2.76E-16 2.05E-17 8.50E-16
 outwf : prtvol=0 or 1, do not print more k-points.

 reduced coordinates (array xred) for    2 atoms
       0.000000000000      0.000000000000      0.000000000000
       0.250000000000      0.250000000000      0.250000000000
 rms dE/dt=  0.0000E+00; max dE/dt=  0.0000E+00; dE/dt below (all hartree)
    1       0.000000000000      0.000000000000      0.000000000000
    2       0.000000000000      0.000000000000      0.000000000000
 
 cartesian coordinates (angstrom) at end:
    1      0.00000000000000     0.00000000000000     0.00000000000000
    2      1.34675599586155     1.34675599586155     1.34675599586155

 cartesian forces (hartree/bohr) at end:
    1      0.00000000000000     0.00000000000000     0.00000000000000
    2      0.00000000000000     0.00000000000000     0.00000000000000
 frms,max,avg= 0.0000000E+00 0.0000000E+00   0.000E+00  0.000E+00  0.000E+00 h/b

 cartesian forces (eV/Angstrom) at end:
    1      0.00000000000000     0.00000000000000     0.00000000000000
    2      0.00000000000000     0.00000000000000     0.00000000000000
 frms,max,avg= 0.0000000E+00 0.0000000E+00   0.000E+00  0.000E+00  0.000E+00 e/A
 length scales= 10.180000000000 10.180000000000 10.180000000000 bohr
              =  5.387023983446  5.387023983446  5.387023983446 angstroms
 Fermi (or HOMO) energy (hartree) =   0.21764   Average Vxc (hartree)=  -0.35598
 Eigenvalues (hartree) for nkpt=  60  k points:
 kpt#   1, nband=  5, wtk=  0.01172, kpt= -0.0625 -0.1250  0.0000 (reduced coord)
  -0.21872   0.17299   0.20109   0.20757   0.30702
 kpt#   2, nband=  5, wtk=  0.01172, kpt= -0.0625 -0.2500  0.0000 (reduced coord)
  -0.19864   0.08805   0.18284   0.19076   0.30632
 kpt#   3, nband=  5, wtk=  0.01172, kpt= -0.1250 -0.1875  0.0000 (reduced coord)
  -0.20851   0.14013   0.17972   0.18331   0.29039
 kpt#   4, nband=  5, wtk=  0.02344, kpt= -0.0625 -0.1875  0.0625 (reduced coord)
  -0.20354   0.11425   0.16426   0.19895   0.31237
 kpt#   5, nband=  5, wtk=  0.01172, kpt= -0.0625 -0.3750  0.0000 (reduced coord)
  -0.16619   0.00995   0.17258   0.17320   0.29344
 kpt#   6, nband=  5, wtk=  0.01172, kpt= -0.1250 -0.3125  0.0000 (reduced coord)
  -0.18385   0.06075   0.16260   0.16467   0.30117
 kpt#   7, nband=  5, wtk=  0.02344, kpt= -0.0625 -0.3125  0.0625 (reduced coord)
  -0.17466   0.03519   0.14744   0.18090   0.31101
 kpt#   8, nband=  5, wtk=  0.01172, kpt= -0.1875 -0.2500  0.0000 (reduced coord)
  -0.19331   0.10429   0.15826   0.15937   0.27324
 kpt#   9, nband=  5, wtk=  0.02344, kpt= -0.1250 -0.2500  0.0625 (reduced coord)
  -0.18852   0.08380   0.14244   0.17351   0.29665
 kpt#  10, nband=  5, wtk=  0.02344, kpt= -0.0625 -0.2500  0.1250 (reduced coord)
  -0.17903   0.05907   0.12100   0.18464   0.33039
 kpt#  11, nband=  5, wtk=  0.01172, kpt= -0.0625  0.5000  0.0000 (reduced coord)
  -0.13665  -0.03848   0.16229   0.17201   0.28736
 kpt#  12, nband=  5, wtk=  0.01172, kpt= -0.1250 -0.4375  0.0000 (reduced coord)
  -0.14914  -0.00927   0.14224   0.16020   0.29868
 kpt#  13, nband=  5, wtk=  0.02344, kpt= -0.0625 -0.4375  0.0625 (reduced coord)
  -0.14014  -0.02671   0.14115   0.16802   0.30392
 kpt#  14, nband=  5, wtk=  0.01172, kpt= -0.1875 -0.3750  0.0000 (reduced coord)
  -0.16449   0.03479   0.13062   0.14871   0.28503
 kpt#  15, nband=  5, wtk=  0.02344, kpt= -0.1250 -0.3750  0.0625 (reduced coord)
  -0.15615   0.01285   0.12415   0.15765   0.30377
 kpt#  16, nband=  5, wtk=  0.02344, kpt= -0.0625 -0.3750  0.1250 (reduced coord)
  -0.14440  -0.00710   0.11022   0.16508   0.31859
 kpt#  17, nband=  5, wtk=  0.01172, kpt= -0.2500 -0.3125  0.0000 (reduced coord)
  -0.17329   0.06605   0.13724   0.14208   0.25867
 kpt#  18, nband=  5, wtk=  0.02344, kpt= -0.1875 -0.3125  0.0625 (reduced coord)
  -0.16878   0.05254   0.12294   0.14830   0.28195
 kpt#  19, nband=  5, wtk=  0.02344, kpt= -0.1250 -0.3125  0.1250 (reduced coord)
  -0.15991   0.03299   0.10289   0.15713   0.31919
 kpt#  20, nband=  5, wtk=  0.02344, kpt= -0.0625 -0.3125  0.1875 (reduced coord)
  -0.14706   0.01261   0.08400   0.16329   0.31947
 kpt#  21, nband=  5, wtk=  0.01172, kpt= -0.0625  0.3750  0.0000 (reduced coord)
  -0.15423  -0.01139   0.16021   0.18040   0.29038
 kpt#  22, nband=  5, wtk=  0.01172, kpt= -0.1250  0.4375  0.0000 (reduced coord)
  -0.13159  -0.03583   0.13003   0.16658   0.30061
 kpt#  23, nband=  5, wtk=  0.01172, kpt= -0.1875  0.5000  0.0000 (reduced coord)
  -0.12992  -0.02347   0.10730   0.14980   0.28739
 kpt#  24, nband=  5, wtk=  0.02344, kpt= -0.1250  0.5000  0.0625 (reduced coord)
  -0.12648  -0.03384   0.11333   0.15406   0.30683
 kpt#  25, nband=  5, wtk=  0.01172, kpt= -0.2500 -0.4375  0.0000 (reduced coord)
  -0.14094   0.00860   0.10194   0.13613   0.26977
 kpt#  26, nband=  5, wtk=  0.02344, kpt= -0.1875 -0.4375  0.0625 (reduced coord)
  -0.13411  -0.00722   0.09802   0.13897   0.28965
 kpt#  27, nband=  5, wtk=  0.02344, kpt= -0.1250 -0.4375  0.1250 (reduced coord)
  -0.12530  -0.02193   0.09153   0.14139   0.32691
 kpt#  28, nband=  5, wtk=  0.02344, kpt= -0.0625 -0.4375  0.1875 (reduced coord)
  -0.11678  -0.03115   0.08283   0.14508   0.29919
 kpt#  29, nband=  5, wtk=  0.01172, kpt= -0.3125 -0.3750  0.0000 (reduced coord)
  -0.14867   0.02652   0.12140   0.12869   0.24827
 kpt#  30, nband=  5, wtk=  0.02344, kpt= -0.2500 -0.3750  0.0625 (reduced coord)
  -0.14460   0.01946   0.10671   0.12860   0.27038
 kpt#  31, nband=  5, wtk=  0.02344, kpt= -0.1875 -0.3750  0.1250 (reduced coord)
  -0.13673   0.00684   0.08880   0.12974   0.30771
 kpt#  32, nband=  5, wtk=  0.02344, kpt= -0.1250 -0.3750  0.1875 (reduced coord)
  -0.12567  -0.00828   0.07229   0.13493   0.33571
 kpt#  33, nband=  5, wtk=  0.02344, kpt= -0.0625 -0.3750  0.2500 (reduced coord)
  -0.11255  -0.02299   0.06042   0.14070   0.29431
 kpt#  34, nband=  5, wtk=  0.01172, kpt= -0.0625  0.2500  0.0000 (reduced coord)
  -0.18895   0.06042   0.16814   0.19584   0.30209
 kpt#  35, nband=  5, wtk=  0.01172, kpt= -0.1250  0.3125  0.0000 (reduced coord)
  -0.16129   0.01213   0.12890   0.18202   0.31127
 kpt#  36, nband=  5, wtk=  0.01172, kpt= -0.1875  0.3750  0.0000 (reduced coord)
  -0.13048  -0.02242   0.09561   0.16209   0.29855
 kpt#  37, nband=  5, wtk=  0.01172, kpt= -0.2500  0.4375  0.0000 (reduced coord)
  -0.11144  -0.03214   0.07589   0.14241   0.27662
 kpt#  38, nband=  5, wtk=  0.01172, kpt= -0.3125  0.5000  0.0000 (reduced coord)
  -0.11394  -0.01952   0.08117   0.12750   0.25853
 kpt#  39, nband=  5, wtk=  0.02344, kpt= -0.2500  0.5000  0.0625 (reduced coord)
  -0.10996  -0.02648   0.07425   0.12743   0.27871
 kpt#  40, nband=  5, wtk=  0.02344, kpt= -0.1875  0.5000  0.1250 (reduced coord)
  -0.10670  -0.03213   0.07283   0.12274   0.31754
 kpt#  41, nband=  5, wtk=  0.01172, kpt= -0.3750 -0.4375  0.0000 (reduced coord)
  -0.11979  -0.01298   0.11086   0.11959   0.24283
 kpt#  42, nband=  5, wtk=  0.02344, kpt= -0.3125 -0.4375  0.0625 (reduced coord)
  -0.11643  -0.01533   0.09495   0.11594   0.26269
 kpt#  43, nband=  5, wtk=  0.02344, kpt= -0.2500 -0.4375  0.1250 (reduced coord)
  -0.11017  -0.02068   0.07917   0.10886   0.29950
 kpt#  44, nband=  5, wtk=  0.02344, kpt= -0.1875 -0.4375  0.1875 (reduced coord)
  -0.10209  -0.02873   0.06647   0.10768   0.34524
 kpt#  45, nband=  5, wtk=  0.02344, kpt= -0.1250 -0.4375  0.2500 (reduced coord)
  -0.09399  -0.03747   0.05924   0.11363   0.31251
 kpt#  46, nband=  5, wtk=  0.02344, kpt= -0.0625 -0.4375  0.3125 (reduced coord)
  -0.08810  -0.04450   0.06020   0.12195   0.27297
 kpt#  47, nband=  5, wtk=  0.01172, kpt= -0.0625  0.1250  0.0000 (reduced coord)
  -0.21364   0.14460   0.18641   0.21336   0.31870
 kpt#  48, nband=  5, wtk=  0.01172, kpt= -0.1250  0.1875  0.0000 (reduced coord)
  -0.19366   0.08617   0.14220   0.20188   0.32662
 kpt#  49, nband=  5, wtk=  0.01172, kpt= -0.1875  0.2500  0.0000 (reduced coord)
  -0.16508   0.03498   0.10068   0.18250   0.31882
 kpt#  50, nband=  5, wtk=  0.01172, kpt= -0.2500  0.3125  0.0000 (reduced coord)
  -0.13089  -0.00631   0.06922   0.15959   0.29507
 prteigrs : prtvol=0 or 1, do not print more k-points.

 Total charge density [el/Bohr^3]
,     Maximum=    8.6732E-02  at reduced coord.    0.1000    0.1000    0.7000
,Next maximum=    8.6732E-02  at reduced coord.    0.1000    0.7000    0.1000
,     Minimum=    3.6142E-03  at reduced coord.    0.5000    0.5000    0.5000
,Next minimum=    3.6618E-03  at reduced coord.    0.7667    0.7333    0.7333
,  Integrated=    8.0000E+00

--------------------------------------------------------------------------------
 Components of total free energy (in Hartree) :

    Kinetic energy  =  3.03885285844664E+00
    Hartree energy  =  5.34484292960416E-01
    XC energy       = -3.54628270567922E+00
    Ewald energy    = -8.46648022654903E+00
    PspCore energy  =  8.69853998679112E-02
    Loc. psp. energy= -2.41651599931345E+00
    NL   psp  energy=  1.89196641936887E+00
    >>>>>>>>> Etotal= -8.87698996089786E+00

 Other information on the energy :
    Total energy(eV)= -2.41555181347358E+02 ; Band energy (Ha)=   2.5170319551E-01
--------------------------------------------------------------------------------

 Cartesian components of stress tensor (hartree/bohr^3)
  sigma(1 1)= -1.98933971E-05  sigma(3 2)=  0.00000000E+00
  sigma(2 2)= -1.98933971E-05  sigma(3 1)=  0.00000000E+00
  sigma(3 3)= -1.98933971E-05  sigma(2 1)=  0.00000000E+00

-Cartesian components of stress tensor (GPa)         [Pressure=  5.8528E-01 GPa]
- sigma(1 1)= -5.85283850E-01  sigma(3 2)=  0.00000000E+00
- sigma(2 2)= -5.85283850E-01  sigma(3 1)=  0.00000000E+00
- sigma(3 3)= -5.85283850E-01  sigma(2 1)=  0.00000000E+00

================================================================================
== DATASET  2 ==================================================================
-   nproc =   15

 Exchange-correlation functional for the present dataset will be:
  LDA: new Teter (4/93) with spin-polarized option - ixc=1
 Citation for XC functional:
  S. Goedecker, M. Teter, J. Huetter, PRB 54, 1703 (1996)
 
 Real(R)+Recip(G) space primitive vectors, cartesian coordinates (Bohr,Bohr^-1):
 R(1)=  0.0000000  5.0910000  5.0910000  G(1)= -0.0982125  0.0982125  0.0982125
 R(2)=  5.0910000  0.0000000  5.0910000  G(2)=  0.0982125 -0.0982125  0.0982125
 R(3)=  5.0910000  5.0910000  0.0000000  G(3)=  0.0982125  0.0982125 -0.0982125
 Unit cell volume ucvol=  2.6389994E+02 bohr^3
 Angles (23,13,12)=  6.00000000E+01  6.00000000E+01  6.00000000E+01 degrees

 getcut: wavevector=  0.0000  0.0000  0.0000  ngfft=  30  30  30
         ecut(hartree)=     20.000   => boxcut(ratio)=   2.07207
--------------------------------------------------------------------------------

P newkpt: treating      5 bands with npw=    1133 for ikpt=   1 by node    0
P newkpt: treating      5 bands with npw=    1126 for ikpt=   2 by node    0
P newkpt: treating      5 bands with npw=    1135 for ikpt=   3 by node    0
P newkpt: treating      5 bands with npw=    1134 for ikpt=   4 by node    0
P newkpt: treating      5 bands with npw=    1128 for ikpt=   5 by node    1
P newkpt: treating      5 bands with npw=    1123 for ikpt=   6 by node    1
P newkpt: treating      5 bands with npw=    1121 for ikpt=   7 by node    1
P newkpt: treating      5 bands with npw=    1126 for ikpt=   8 by node    1
P newkpt: treating      5 bands with npw=    1124 for ikpt=   9 by node    2
P newkpt: treating      5 bands with npw=    1123 for ikpt=  10 by node    2
P newkpt: treating      5 bands with npw=    1135 for ikpt=  11 by node    2
P newkpt: treating      5 bands with npw=    1125 for ikpt=  12 by node    2
P newkpt: treating      5 bands with npw=    1128 for ikpt=  13 by node    3
P newkpt: treating      5 bands with npw=    1121 for ikpt=  14 by node    3
P newkpt: treating      5 bands with npw=    1123 for ikpt=  15 by node    3
P newkpt: treating      5 bands with npw=    1131 for ikpt=  16 by node    3
P newkpt: treating      5 bands with npw=    1118 for ikpt=  17 by node    4
P newkpt: treating      5 bands with npw=    1123 for ikpt=  18 by node    4
P newkpt: treating      5 bands with npw=    1125 for ikpt=  19 by node    4
P newkpt: treating      5 bands with npw=    1127 for ikpt=  20 by node    4
P newkpt: treating      5 bands with npw=    1130 for ikpt=  21 by node    5
P newkpt: treating      5 bands with npw=    1130 for ikpt=  22 by node    5
P newkpt: treating      5 bands with npw=    1125 for ikpt=  23 by node    5
P newkpt: treating      5 bands with npw=    1126 for ikpt=  24 by node    5
P newkpt: treating      5 bands with npw=    1123 for ikpt=  25 by node    6
P newkpt: treating      5 bands with npw=    1125 for ikpt=  26 by node    6
P newkpt: treating      5 bands with npw=    1128 for ikpt=  27 by node    6
P newkpt: treating      5 bands with npw=    1133 for ikpt=  28 by node    6
P newkpt: treating      5 bands with npw=    1121 for ikpt=  29 by node    7
P newkpt: treating      5 bands with npw=    1126 for ikpt=  30 by node    7
P newkpt: treating      5 bands with npw=    1127 for ikpt=  31 by node    7
P newkpt: treating      5 bands with npw=    1128 for ikpt=  32 by node    7
P newkpt: treating      5 bands with npw=    1127 for ikpt=  33 by node    8
P newkpt: treating      5 bands with npw=    1122 for ikpt=  34 by node    8
P newkpt: treating      5 bands with npw=    1126 for ikpt=  35 by node    8
P newkpt: treating      5 bands with npw=    1130 for ikpt=  36 by node    8
P newkpt: treating      5 bands with npw=    1130 for ikpt=  37 by node    9
P newkpt: treating      5 bands with npw=    1126 for ikpt=  38 by node    9
P newkpt: treating      5 bands with npw=    1126 for ikpt=  39 by node    9
P newkpt: treating      5 bands with npw=    1132 for ikpt=  40 by node    9
P newkpt: treating      5 bands with npw=    1122 for ikpt=  41 by node   10
P newkpt: treating      5 bands with npw=    1123 for ikpt=  42 by node   10
P newkpt: treating      5 bands with npw=    1123 for ikpt=  43 by node   10
P newkpt: treating      5 bands with npw=    1125 for ikpt=  44 by node   10
P newkpt: treating      5 bands with npw=    1126 for ikpt=  45 by node   11
P newkpt: treating      5 bands with npw=    1133 for ikpt=  46 by node   11
P newkpt: treating      5 bands with npw=    1139 for ikpt=  47 by node   11
P newkpt: treating      5 bands with npw=    1127 for ikpt=  48 by node   11
P newkpt: treating      5 bands with npw=    1129 for ikpt=  49 by node   12
P newkpt: treating      5 bands with npw=    1127 for ikpt=  50 by node   12
 newkpt: prtvol=0 or 1, do not print more k-points.
 
_setup2: Arith. and geom. avg. npw (full set) are    1127.305    1127.297

================================================================================

     iter   Etot(hartree)      deltaE(h)  residm     vres2    diffor    maxfor
 ETOT  1  -8.8702639552357    -8.870E+00 1.967E-02 2.035E+01 0.000E+00 0.000E+00
 ETOT  2  -8.8769155362894    -6.652E-03 1.474E-03 5.264E-01 0.000E+00 0.000E+00
 ETOT  3  -8.8769920131660    -7.648E-05 1.685E-04 1.002E-02 0.000E+00 0.000E+00
 ETOT  4  -8.8769929263046    -9.131E-07 6.685E-05 4.219E-05 0.000E+00 0.000E+00
 ETOT  5  -8.8769929320059    -5.701E-09 1.731E-05 7.481E-08 0.000E+00 0.000E+00
 ETOT  6  -8.8769929320214    -1.551E-11 7.687E-06 5.353E-10 0.000E+00 0.000E+00
 ETOT  7  -8.8769929320215    -1.599E-13 3.850E-06 1.685E-12 0.000E+00 0.000E+00

 At SCF step    7, etot is converged : 
  for the second time, diff in etot=  1.599E-13 < toldfe=  1.000E-10

 Cartesian components of stress tensor (hartree/bohr^3)
  sigma(1 1)= -1.79182478E-05  sigma(3 2)=  0.00000000E+00
  sigma(2 2)= -1.79182478E-05  sigma(3 1)=  0.00000000E+00
  sigma(3 3)= -1.79182478E-05  sigma(2 1)=  0.00000000E+00
 
================================================================================

 ----iterations are completed or convergence reached----

 Mean square residual over all n,k,spin=   1.9818E-08; max=  3.8499E-06
  -0.0625 -0.1250  0.0000    1  4.05023E-10 kpt; spin; max resid(k); each band:
  3.16E-16 1.21E-16 9.38E-17 1.81E-16 4.05E-10
  -0.0625 -0.2500  0.0000    1  2.12195E-11 kpt; spin; max resid(k); each band:
  6.19E-16 6.62E-16 4.02E-17 4.08E-16 2.12E-11
  -0.1250 -0.1875  0.0000    1  2.90317E-15 kpt; spin; max resid(k); each band:
  5.86E-16 1.05E-16 4.70E-17 2.63E-16 2.90E-15
  -0.0625 -0.1875  0.0625    1  2.73466E-11 kpt; spin; max resid(k); each band:
  5.59E-16 2.05E-16 4.63E-16 1.12E-16 2.73E-11
  -0.0625 -0.3750  0.0000    1  2.99834E-13 kpt; spin; max resid(k); each band:
  5.43E-16 1.10E-15 2.19E-17 3.38E-16 3.00E-13
  -0.1250 -0.3125  0.0000    1  2.30866E-14 kpt; spin; max resid(k); each band:
  6.75E-16 4.58E-16 5.61E-16 3.01E-17 2.31E-14
  -0.0625 -0.3125  0.0625    1  9.00963E-11 kpt; spin; max resid(k); each band:
  5.98E-16 8.13E-16 4.42E-16 1.18E-16 9.01E-11
  -0.1875 -0.2500  0.0000    1  1.20867E-15 kpt; spin; max resid(k); each band:
  8.28E-16 7.41E-17 2.59E-16 3.01E-17 1.21E-15
  -0.1250 -0.2500  0.0625    1  1.38627E-15 kpt; spin; max resid(k); each band:
  7.15E-16 1.80E-16 5.29E-16 1.14E-16 1.39E-15
  -0.0625 -0.2500  0.1250    1  2.69417E-07 kpt; spin; max resid(k); each band:
  5.75E-16 3.80E-16 5.96E-16 9.65E-17 2.69E-07
  -0.0625  0.5000  0.0000    1  1.48567E-13 kpt; spin; max resid(k); each band:
  6.53E-17 1.60E-15 2.90E-16 1.53E-17 1.49E-13
  -0.1250 -0.4375  0.0000    1  4.05026E-14 kpt; spin; max resid(k); each band:
  4.67E-16 8.34E-16 4.47E-16 2.36E-17 4.05E-14
  -0.0625 -0.4375  0.0625    1  2.96137E-12 kpt; spin; max resid(k); each band:
  2.26E-16 1.32E-15 4.50E-16 4.59E-17 2.96E-12
  -0.1875 -0.3750  0.0000    1  9.21453E-16 kpt; spin; max resid(k); each band:
  6.95E-16 4.05E-16 4.70E-16 2.43E-17 9.21E-16
  -0.1250 -0.3750  0.0625    1  2.94854E-14 kpt; spin; max resid(k); each band:
  5.82E-16 5.66E-16 5.23E-16 1.03E-16 2.95E-14
  -0.0625 -0.3750  0.1250    1  4.21779E-10 kpt; spin; max resid(k); each band:
  2.35E-16 1.01E-15 4.05E-16 1.51E-16 4.22E-10
  -0.2500 -0.3125  0.0000    1  1.76838E-15 kpt; spin; max resid(k); each band:
  8.46E-16 4.19E-17 2.32E-16 2.45E-17 1.77E-15
  -0.1875 -0.3125  0.0625    1  1.79453E-14 kpt; spin; max resid(k); each band:
  7.92E-16 1.38E-16 5.38E-16 8.82E-17 1.79E-14
  -0.1250 -0.3125  0.1250    1  6.73520E-12 kpt; spin; max resid(k); each band:
  6.85E-16 2.10E-16 7.55E-16 1.45E-16 6.74E-12
  -0.0625 -0.3125  0.1875    1  3.94030E-13 kpt; spin; max resid(k); each band:
  2.31E-16 6.19E-16 3.09E-16 2.51E-16 3.94E-13
  -0.0625  0.3750  0.0000    1  5.65212E-15 kpt; spin; max resid(k); each band:
  3.87E-16 1.28E-15 2.65E-16 1.75E-17 5.65E-15
  -0.1250  0.4375  0.0000    1  1.63837E-13 kpt; spin; max resid(k); each band:
  5.00E-17 1.21E-15 3.87E-16 1.93E-17 1.64E-13
  -0.1875  0.5000  0.0000    1  7.39196E-16 kpt; spin; max resid(k); each band:
  3.41E-16 7.39E-16 4.16E-16 2.24E-17 6.46E-16
  -0.1250  0.5000  0.0625    1  1.27129E-12 kpt; spin; max resid(k); each band:
  1.53E-16 9.61E-16 4.50E-16 1.45E-16 1.27E-12
  -0.2500 -0.4375  0.0000    1  1.70508E-15 kpt; spin; max resid(k); each band:
  6.32E-16 3.38E-16 3.23E-16 2.21E-17 1.71E-15
  -0.1875 -0.4375  0.0625    1  9.07680E-16 kpt; spin; max resid(k); each band:
  4.91E-16 5.16E-16 4.23E-16 2.02E-16 9.08E-16
  -0.1250 -0.4375  0.1250    1  7.72285E-08 kpt; spin; max resid(k); each band:
  3.27E-16 6.49E-16 5.86E-16 3.18E-16 7.72E-08
  -0.0625 -0.4375  0.1875    1  2.23457E-15 kpt; spin; max resid(k); each band:
  9.83E-17 8.31E-16 3.94E-16 2.62E-16 2.23E-15
  -0.3125 -0.3750  0.0000    1  6.04075E-14 kpt; spin; max resid(k); each band:
  8.82E-16 3.10E-17 1.98E-16 2.30E-17 6.04E-14
  -0.2500 -0.3750  0.0625    1  2.00474E-13 kpt; spin; max resid(k); each band:
  7.74E-16 8.70E-17 4.38E-16 1.17E-16 2.00E-13
  -0.1875 -0.3750  0.1250    1  1.93122E-12 kpt; spin; max resid(k); each band:
  6.42E-16 1.60E-16 6.59E-16 2.49E-16 1.93E-12
  -0.1250 -0.3750  0.1875    1  1.15328E-08 kpt; spin; max resid(k); each band:
  1.80E-16 4.78E-16 2.64E-16 7.20E-16 1.15E-08
  -0.0625 -0.3750  0.2500    1  1.01857E-15 kpt; spin; max resid(k); each band:
  1.18E-16 6.27E-16 2.15E-16 3.04E-16 1.02E-15
  -0.0625  0.2500  0.0000    1  1.54140E-13 kpt; spin; max resid(k); each band:
  5.72E-16 8.54E-16 2.68E-16 1.61E-17 1.54E-13
  -0.1250  0.3125  0.0000    1  1.24184E-13 kpt; spin; max resid(k); each band:
  3.37E-16 1.02E-15 3.61E-16 1.97E-17 1.24E-13
  -0.1875  0.3750  0.0000    1  9.22830E-16 kpt; spin; max resid(k); each band:
  1.28E-16 9.23E-16 4.00E-16 2.16E-17 7.75E-16
  -0.2500  0.4375  0.0000    1  7.33872E-16 kpt; spin; max resid(k); each band:
  2.37E-16 7.34E-16 3.41E-16 2.15E-17 6.36E-16
  -0.3125  0.5000  0.0000    1  1.45165E-15 kpt; spin; max resid(k); each band:
  4.97E-16 3.00E-16 1.74E-16 2.26E-17 1.45E-15
  -0.2500  0.5000  0.0625    1  9.58836E-16 kpt; spin; max resid(k); each band:
  3.39E-16 4.73E-16 2.54E-16 2.88E-16 9.59E-16
  -0.1875  0.5000  0.1250    1  2.27889E-13 kpt; spin; max resid(k); each band:
  1.73E-16 5.62E-16 3.67E-16 6.24E-16 2.28E-13
  -0.3750 -0.4375  0.0000    1  2.49117E-11 kpt; spin; max resid(k); each band:
  7.87E-16 5.93E-17 1.62E-16 2.35E-17 2.49E-11
  -0.3125 -0.4375  0.0625    1  1.94325E-13 kpt; spin; max resid(k); each band:
  6.39E-16 1.21E-16 2.62E-16 2.29E-16 1.94E-13
  -0.2500 -0.4375  0.1250    1  4.12791E-12 kpt; spin; max resid(k); each band:
  4.98E-16 1.34E-16 4.09E-16 4.63E-16 4.13E-12
  -0.1875 -0.4375  0.1875    1  2.81905E-08 kpt; spin; max resid(k); each band:
  3.01E-16 1.16E-16 5.03E-16 8.23E-16 2.82E-08
  -0.1250 -0.4375  0.2500    1  1.66662E-15 kpt; spin; max resid(k); each band:
  5.89E-17 4.62E-16 1.31E-16 7.39E-16 1.67E-15
  -0.0625 -0.4375  0.3125    1  1.03110E-15 kpt; spin; max resid(k); each band:
  1.56E-16 5.74E-16 8.12E-17 3.27E-16 1.03E-15
  -0.0625  0.1250  0.0000    1  1.69785E-06 kpt; spin; max resid(k); each band:
  3.83E-16 4.11E-16 3.23E-16 9.00E-18 1.70E-06
  -0.1250  0.1875  0.0000    1  9.58170E-09 kpt; spin; max resid(k); each band:
  3.51E-16 5.33E-16 3.38E-16 1.84E-17 9.58E-09
  -0.1875  0.2500  0.0000    1  1.38803E-14 kpt; spin; max resid(k); each band:
  2.58E-16 6.30E-16 3.15E-16 2.47E-17 1.39E-14
  -0.2500  0.3125  0.0000    1  8.62059E-16 kpt; spin; max resid(k); each band:
  1.88E-16 6.69E-16 2.85E-16 2.19E-17 8.62E-16
 outwf : prtvol=0 or 1, do not print more k-points.

 reduced coordinates (array xred) for    2 atoms
       0.000000000000      0.000000000000      0.000000000000
       0.250000000000      0.250000000000      0.250000000000
 rms dE/dt=  0.0000E+00; max dE/dt=  0.0000E+00; dE/dt below (all hartree)
    1       0.000000000000      0.000000000000      0.000000000000
    2       0.000000000000      0.000000000000      0.000000000000
 
 cartesian coordinates (angstrom) at end:
    1      0.00000000000000     0.00000000000000     0.00000000000000
    2      1.34702058446584     1.34702058446584     1.34702058446584

 cartesian forces (hartree/bohr) at end:
    1      0.00000000000000     0.00000000000000     0.00000000000000
    2      0.00000000000000     0.00000000000000     0.00000000000000
 frms,max,avg= 0.0000000E+00 0.0000000E+00   0.000E+00  0.000E+00  0.000E+00 h/b

 cartesian forces (eV/Angstrom) at end:
    1      0.00000000000000     0.00000000000000     0.00000000000000
    2      0.00000000000000     0.00000000000000     0.00000000000000
 frms,max,avg= 0.0000000E+00 0.0000000E+00   0.000E+00  0.000E+00  0.000E+00 e/A
 length scales= 10.182000000000 10.182000000000 10.182000000000 bohr
              =  5.388082337863  5.388082337863  5.388082337863 angstroms
 Fermi (or HOMO) energy (hartree) =   0.21742   Average Vxc (hartree)=  -0.35590
 Eigenvalues (hartree) for nkpt=  60  k points:
 kpt#   1, nband=  5, wtk=  0.01172, kpt= -0.0625 -0.1250  0.0000 (reduced coord)
  -0.21880   0.17277   0.20088   0.20735   0.30679
 kpt#   2, nband=  5, wtk=  0.01172, kpt= -0.0625 -0.2500  0.0000 (reduced coord)
  -0.19873   0.08786   0.18264   0.19054   0.30604
 kpt#   3, nband=  5, wtk=  0.01172, kpt= -0.1250 -0.1875  0.0000 (reduced coord)
  -0.20859   0.13991   0.17952   0.18310   0.29017
 kpt#   4, nband=  5, wtk=  0.02344, kpt= -0.0625 -0.1875  0.0625 (reduced coord)
  -0.20362   0.11404   0.16407   0.19873   0.31213
 kpt#   5, nband=  5, wtk=  0.01172, kpt= -0.0625 -0.3750  0.0000 (reduced coord)
  -0.16629   0.00979   0.17238   0.17299   0.29315
 kpt#   6, nband=  5, wtk=  0.01172, kpt= -0.1250 -0.3125  0.0000 (reduced coord)
  -0.18395   0.06056   0.16240   0.16447   0.30094
 kpt#   7, nband=  5, wtk=  0.02344, kpt= -0.0625 -0.3125  0.0625 (reduced coord)
  -0.17476   0.03502   0.14725   0.18070   0.31073
 kpt#   8, nband=  5, wtk=  0.01172, kpt= -0.1875 -0.2500  0.0000 (reduced coord)
  -0.19340   0.10406   0.15807   0.15918   0.27302
 kpt#   9, nband=  5, wtk=  0.02344, kpt= -0.1250 -0.2500  0.0625 (reduced coord)
  -0.18861   0.08359   0.14226   0.17331   0.29642
 kpt#  10, nband=  5, wtk=  0.02344, kpt= -0.0625 -0.2500  0.1250 (reduced coord)
  -0.17913   0.05888   0.12083   0.18444   0.33012
 kpt#  11, nband=  5, wtk=  0.01172, kpt= -0.0625  0.5000  0.0000 (reduced coord)
  -0.13677  -0.03860   0.16209   0.17181   0.28706
 kpt#  12, nband=  5, wtk=  0.01172, kpt= -0.1250 -0.4375  0.0000 (reduced coord)
  -0.14926  -0.00941   0.14204   0.16001   0.29843
 kpt#  13, nband=  5, wtk=  0.02344, kpt= -0.0625 -0.4375  0.0625 (reduced coord)
  -0.14026  -0.02684   0.14096   0.16782   0.30363
 kpt#  14, nband=  5, wtk=  0.01172, kpt= -0.1875 -0.3750  0.0000 (reduced coord)
  -0.16459   0.03461   0.13044   0.14853   0.28481
 kpt#  15, nband=  5, wtk=  0.02344, kpt= -0.1250 -0.3750  0.0625 (reduced coord)
  -0.15627   0.01269   0.12397   0.15746   0.30354
 kpt#  16, nband=  5, wtk=  0.02344, kpt= -0.0625 -0.3750  0.1250 (reduced coord)
  -0.14452  -0.00725   0.11004   0.16489   0.31832
 kpt#  17, nband=  5, wtk=  0.01172, kpt= -0.2500 -0.3125  0.0000 (reduced coord)
  -0.17339   0.06583   0.13706   0.14190   0.25847
 kpt#  18, nband=  5, wtk=  0.02344, kpt= -0.1875 -0.3125  0.0625 (reduced coord)
  -0.16888   0.05233   0.12277   0.14811   0.28173
 kpt#  19, nband=  5, wtk=  0.02344, kpt= -0.1250 -0.3125  0.1250 (reduced coord)
  -0.16002   0.03280   0.10273   0.15694   0.31896
 kpt#  20, nband=  5, wtk=  0.02344, kpt= -0.0625 -0.3125  0.1875 (reduced coord)
  -0.14718   0.01243   0.08385   0.16310   0.31923
 kpt#  21, nband=  5, wtk=  0.01172, kpt= -0.0625  0.3750  0.0000 (reduced coord)
  -0.15435  -0.01153   0.16001   0.18020   0.29008
 kpt#  22, nband=  5, wtk=  0.01172, kpt= -0.1250  0.4375  0.0000 (reduced coord)
  -0.13173  -0.03596   0.12984   0.16638   0.30034
 kpt#  23, nband=  5, wtk=  0.01172, kpt= -0.1875  0.5000  0.0000 (reduced coord)
  -0.13005  -0.02361   0.10712   0.14962   0.28717
 kpt#  24, nband=  5, wtk=  0.02344, kpt= -0.1250  0.5000  0.0625 (reduced coord)
  -0.12661  -0.03398   0.11315   0.15387   0.30659
 kpt#  25, nband=  5, wtk=  0.01172, kpt= -0.2500 -0.4375  0.0000 (reduced coord)
  -0.14106   0.00842   0.10177   0.13595   0.26957
 kpt#  26, nband=  5, wtk=  0.02344, kpt= -0.1875 -0.4375  0.0625 (reduced coord)
  -0.13424  -0.00738   0.09786   0.13879   0.28943
 kpt#  27, nband=  5, wtk=  0.02344, kpt= -0.1250 -0.4375  0.1250 (reduced coord)
  -0.12543  -0.02209   0.09137   0.14121   0.32667
 kpt#  28, nband=  5, wtk=  0.02344, kpt= -0.0625 -0.4375  0.1875 (reduced coord)
  -0.11692  -0.03129   0.08267   0.14490   0.29896
 kpt#  29, nband=  5, wtk=  0.01172, kpt= -0.3125 -0.3750  0.0000 (reduced coord)
  -0.14878   0.02632   0.12123   0.12851   0.24807
[...]
                      -6.25000000E-02 -4.37500000E-01  1.87500000E-01
                      -3.12500000E-01 -3.75000000E-01  0.00000000E+00
                      -2.50000000E-01 -3.75000000E-01  6.25000000E-02
                      -1.87500000E-01 -3.75000000E-01  1.25000000E-01
                      -1.25000000E-01 -3.75000000E-01  1.87500000E-01
                      -6.25000000E-02 -3.75000000E-01  2.50000000E-01
                      -6.25000000E-02  2.50000000E-01  0.00000000E+00
                      -1.25000000E-01  3.12500000E-01  0.00000000E+00
                      -1.87500000E-01  3.75000000E-01  0.00000000E+00
                      -2.50000000E-01  4.37500000E-01  0.00000000E+00
                      -3.12500000E-01  5.00000000E-01  0.00000000E+00
                      -2.50000000E-01  5.00000000E-01  6.25000000E-02
                      -1.87500000E-01  5.00000000E-01  1.25000000E-01
                      -3.75000000E-01 -4.37500000E-01  0.00000000E+00
                      -3.12500000E-01 -4.37500000E-01  6.25000000E-02
                      -2.50000000E-01 -4.37500000E-01  1.25000000E-01
                      -1.87500000E-01 -4.37500000E-01  1.87500000E-01
                      -1.25000000E-01 -4.37500000E-01  2.50000000E-01
                      -6.25000000E-02 -4.37500000E-01  3.12500000E-01
                      -6.25000000E-02  1.25000000E-01  0.00000000E+00
                      -1.25000000E-01  1.87500000E-01  0.00000000E+00
                      -1.87500000E-01  2.50000000E-01  0.00000000E+00
                      -2.50000000E-01  3.12500000E-01  0.00000000E+00
                       outvar_i_n : Printing only first  50 k-points.
         kptrlatt        8   -8    8     -8    8    8     -8   -8    8
          kptrlen1     8.14400000E+01
          kptrlen2     8.14560000E+01
          kptrlen3     8.14720000E+01
          kptrlen4     8.14880000E+01
          kptrlen5     8.15040000E+01
          kptrlen6     8.15200000E+01
          kptrlen7     8.15360000E+01
          kptrlen8     8.15520000E+01
          kptrlen9     8.15680000E+01
          kptrlen10    8.15840000E+01
          kptrlen11    8.16000000E+01
          kptrlen12    8.16160000E+01
          kptrlen13    8.16320000E+01
          kptrlen14    8.16480000E+01
          kptrlen15    8.16640000E+01
          kptrlen16    8.16800000E+01
          kptrlen17    8.16960000E+01
P           mkmem           4
            natom           2
            nband           5
           ndtset          17
            ngfft          30      30      30
             nkpt          60
-           npkpt          15
            nstep          25
             nsym          48
           ntypat           1
              occ      2.000000  2.000000  2.000000  2.000000  0.000000
        optforces           1
           prtden           0
           prteig           0
            rprim      0.0000000000E+00  5.0000000000E-01  5.0000000000E-01
                       5.0000000000E-01  0.0000000000E+00  5.0000000000E-01
                       5.0000000000E-01  5.0000000000E-01  0.0000000000E+00
           shiftk      5.00000000E-01  5.00000000E-01  5.00000000E-01
          spgroup         227
           strten1    -1.9893397053E-05 -1.9893397053E-05 -1.9893397053E-05
                       0.0000000000E+00  0.0000000000E+00  0.0000000000E+00
           strten2    -1.7918247780E-05 -1.7918247780E-05 -1.7918247780E-05
                       0.0000000000E+00  0.0000000000E+00  0.0000000000E+00
           strten3    -1.5949073507E-05 -1.5949073507E-05 -1.5949073507E-05
                       0.0000000000E+00  0.0000000000E+00  0.0000000000E+00
           strten4    -1.3984480003E-05 -1.3984480003E-05 -1.3984480003E-05
                       0.0000000000E+00  0.0000000000E+00  0.0000000000E+00
           strten5    -1.2025334614E-05 -1.2025334614E-05 -1.2025334614E-05
                       0.0000000000E+00  0.0000000000E+00  0.0000000000E+00
           strten6    -1.0071317864E-05 -1.0071317864E-05 -1.0071317864E-05
                       0.0000000000E+00  0.0000000000E+00  0.0000000000E+00
           strten7    -8.1231917337E-06 -8.1231917337E-06 -8.1231917337E-06
                       0.0000000000E+00  0.0000000000E+00  0.0000000000E+00
           strten8    -6.1790571733E-06 -6.1790571733E-06 -6.1790571733E-06
                       0.0000000000E+00  0.0000000000E+00  0.0000000000E+00
           strten9    -4.2426707000E-06 -4.2426707000E-06 -4.2426707000E-06
                       0.0000000000E+00  0.0000000000E+00  0.0000000000E+00
           strten10   -2.3096492700E-06 -2.3096492700E-06 -2.3096492700E-06
                       0.0000000000E+00  0.0000000000E+00  0.0000000000E+00
           strten11   -3.8175800439E-07 -3.8175800439E-07 -3.8175800439E-07
                       0.0000000000E+00  0.0000000000E+00  0.0000000000E+00
           strten12    1.5402298715E-06  1.5402298715E-06  1.5402298715E-06
                       0.0000000000E+00  0.0000000000E+00  0.0000000000E+00
           strten13    3.4586678823E-06  3.4586678823E-06  3.4586678823E-06
                       0.0000000000E+00  0.0000000000E+00  0.0000000000E+00
           strten14    5.3701874381E-06  5.3701874381E-06  5.3701874381E-06
                       0.0000000000E+00  0.0000000000E+00  0.0000000000E+00
           strten15    7.2769232305E-06  7.2769232305E-06  7.2769232305E-06
                       0.0000000000E+00  0.0000000000E+00  0.0000000000E+00
           strten16    9.1790202014E-06  9.1790202014E-06  9.1790202014E-06
                       0.0000000000E+00  0.0000000000E+00  0.0000000000E+00
           strten17    1.1076786527E-05  1.1076786527E-05  1.1076786527E-05
                       0.0000000000E+00  0.0000000000E+00  0.0000000000E+00
           symrel      1  0  0   0  1  0   0  0  1      -1  0  0   0 -1  0   0  0 -1
                       0 -1  1   0 -1  0   1 -1  0       0  1 -1   0  1  0  -1  1  0
                      -1  0  0  -1  0  1  -1  1  0       1  0  0   1  0 -1   1 -1  0
                       0  1 -1   1  0 -1   0  0 -1       0 -1  1  -1  0  1   0  0  1
                      -1  0  0  -1  1  0  -1  0  1       1  0  0   1 -1  0   1  0 -1
                       0 -1  1   1 -1  0   0 -1  0       0  1 -1  -1  1  0   0  1  0
                       1  0  0   0  0  1   0  1  0      -1  0  0   0  0 -1   0 -1  0
                       0  1 -1   0  0 -1   1  0 -1       0 -1  1   0  0  1  -1  0  1
                      -1  0  1  -1  1  0  -1  0  0       1  0 -1   1 -1  0   1  0  0
                       0 -1  0   1 -1  0   0 -1  1       0  1  0  -1  1  0   0  1 -1
                       1  0 -1   0  0 -1   0  1 -1      -1  0  1   0  0  1   0 -1  1
                       0  1  0   0  0  1   1  0  0       0 -1  0   0  0 -1  -1  0  0
                       1  0 -1   0  1 -1   0  0 -1      -1  0  1   0 -1  1   0  0  1
                       0 -1  0   0 -1  1   1 -1  0       0  1  0   0  1 -1  -1  1  0
                      -1  0  1  -1  0  0  -1  1  0       1  0 -1   1  0  0   1 -1  0
                       0  1  0   1  0  0   0  0  1       0 -1  0  -1  0  0   0  0 -1
                       0  0 -1   0  1 -1   1  0 -1       0  0  1   0 -1  1  -1  0  1
                       1 -1  0   0 -1  1   0 -1  0      -1  1  0   0  1 -1   0  1  0
                       0  0  1   1  0  0   0  1  0       0  0 -1  -1  0  0   0 -1  0
                      -1  1  0  -1  0  0  -1  0  1       1 -1  0   1  0  0   1  0 -1
                       0  0  1   0  1  0   1  0  0       0  0 -1   0 -1  0  -1  0  0
                       1 -1  0   0 -1  0   0 -1  1      -1  1  0   0  1  0   0  1 -1
                       0  0 -1   1  0 -1   0  1 -1       0  0  1  -1  0  1   0 -1  1
                      -1  1  0  -1  0  1  -1  0  0       1 -1  0   1  0 -1   1  0  0
            tnons      0.0000000  0.0000000  0.0000000     0.2500000  0.2500000  0.2500000
                       0.0000000  0.0000000  0.0000000     0.2500000  0.2500000  0.2500000
                       0.0000000  0.0000000  0.0000000     0.2500000  0.2500000  0.2500000
                       0.0000000  0.0000000  0.0000000     0.2500000  0.2500000  0.2500000
                       0.0000000  0.0000000  0.0000000     0.2500000  0.2500000  0.2500000
                       0.0000000  0.0000000  0.0000000     0.2500000  0.2500000  0.2500000
                       0.0000000  0.0000000  0.0000000     0.2500000  0.2500000  0.2500000
                       0.0000000  0.0000000  0.0000000     0.2500000  0.2500000  0.2500000
                       0.0000000  0.0000000  0.0000000     0.2500000  0.2500000  0.2500000
                       0.0000000  0.0000000  0.0000000     0.2500000  0.2500000  0.2500000
                       0.0000000  0.0000000  0.0000000     0.2500000  0.2500000  0.2500000
                       0.0000000  0.0000000  0.0000000     0.2500000  0.2500000  0.2500000
                       0.0000000  0.0000000  0.0000000     0.2500000  0.2500000  0.2500000
                       0.0000000  0.0000000  0.0000000     0.2500000  0.2500000  0.2500000
                       0.0000000  0.0000000  0.0000000     0.2500000  0.2500000  0.2500000
                       0.0000000  0.0000000  0.0000000     0.2500000  0.2500000  0.2500000
                       0.0000000  0.0000000  0.0000000     0.2500000  0.2500000  0.2500000
                       0.0000000  0.0000000  0.0000000     0.2500000  0.2500000  0.2500000
                       0.0000000  0.0000000  0.0000000     0.2500000  0.2500000  0.2500000
                       0.0000000  0.0000000  0.0000000     0.2500000  0.2500000  0.2500000
                       0.0000000  0.0000000  0.0000000     0.2500000  0.2500000  0.2500000
                       0.0000000  0.0000000  0.0000000     0.2500000  0.2500000  0.2500000
                       0.0000000  0.0000000  0.0000000     0.2500000  0.2500000  0.2500000
                       0.0000000  0.0000000  0.0000000     0.2500000  0.2500000  0.2500000
           toldfe      1.00000000E-10 Hartree
            typat      1  1
              wtk        0.01172    0.01172    0.01172    0.02344    0.01172    0.01172
                         0.02344    0.01172    0.02344    0.02344    0.01172    0.01172
                         0.02344    0.01172    0.02344    0.02344    0.01172    0.02344
                         0.02344    0.02344    0.01172    0.01172    0.01172    0.02344
                         0.01172    0.02344    0.02344    0.02344    0.01172    0.02344
                         0.02344    0.02344    0.02344    0.01172    0.01172    0.01172
                         0.01172    0.01172    0.02344    0.02344    0.01172    0.02344
                         0.02344    0.02344    0.02344    0.02344    0.01172    0.01172
                         0.01172    0.01172
                       outvars : Printing only first  50 k-points.
           xangst1     0.0000000000E+00  0.0000000000E+00  0.0000000000E+00
                       1.3467559959E+00  1.3467559959E+00  1.3467559959E+00
           xangst2     0.0000000000E+00  0.0000000000E+00  0.0000000000E+00
                       1.3470205845E+00  1.3470205845E+00  1.3470205845E+00
           xangst3     0.0000000000E+00  0.0000000000E+00  0.0000000000E+00
                       1.3472851731E+00  1.3472851731E+00  1.3472851731E+00
           xangst4     0.0000000000E+00  0.0000000000E+00  0.0000000000E+00
                       1.3475497617E+00  1.3475497617E+00  1.3475497617E+00
           xangst5     0.0000000000E+00  0.0000000000E+00  0.0000000000E+00
                       1.3478143503E+00  1.3478143503E+00  1.3478143503E+00
           xangst6     0.0000000000E+00  0.0000000000E+00  0.0000000000E+00
                       1.3480789389E+00  1.3480789389E+00  1.3480789389E+00
           xangst7     0.0000000000E+00  0.0000000000E+00  0.0000000000E+00
                       1.3483435275E+00  1.3483435275E+00  1.3483435275E+00
           xangst8     0.0000000000E+00  0.0000000000E+00  0.0000000000E+00
                       1.3486081161E+00  1.3486081161E+00  1.3486081161E+00
           xangst9     0.0000000000E+00  0.0000000000E+00  0.0000000000E+00
                       1.3488727047E+00  1.3488727047E+00  1.3488727047E+00
           xangst10    0.0000000000E+00  0.0000000000E+00  0.0000000000E+00
                       1.3491372933E+00  1.3491372933E+00  1.3491372933E+00
           xangst11    0.0000000000E+00  0.0000000000E+00  0.0000000000E+00
                       1.3494018819E+00  1.3494018819E+00  1.3494018819E+00
           xangst12    0.0000000000E+00  0.0000000000E+00  0.0000000000E+00
                       1.3496664705E+00  1.3496664705E+00  1.3496664705E+00
           xangst13    0.0000000000E+00  0.0000000000E+00  0.0000000000E+00
                       1.3499310591E+00  1.3499310591E+00  1.3499310591E+00
           xangst14    0.0000000000E+00  0.0000000000E+00  0.0000000000E+00
                       1.3501956477E+00  1.3501956477E+00  1.3501956477E+00
           xangst15    0.0000000000E+00  0.0000000000E+00  0.0000000000E+00
                       1.3504602363E+00  1.3504602363E+00  1.3504602363E+00
           xangst16    0.0000000000E+00  0.0000000000E+00  0.0000000000E+00
                       1.3507248249E+00  1.3507248249E+00  1.3507248249E+00
           xangst17    0.0000000000E+00  0.0000000000E+00  0.0000000000E+00
                       1.3509894135E+00  1.3509894135E+00  1.3509894135E+00
            xcart1     0.0000000000E+00  0.0000000000E+00  0.0000000000E+00
                       2.5450000000E+00  2.5450000000E+00  2.5450000000E+00
            xcart2     0.0000000000E+00  0.0000000000E+00  0.0000000000E+00
                       2.5455000000E+00  2.5455000000E+00  2.5455000000E+00
            xcart3     0.0000000000E+00  0.0000000000E+00  0.0000000000E+00
                       2.5460000000E+00  2.5460000000E+00  2.5460000000E+00
            xcart4     0.0000000000E+00  0.0000000000E+00  0.0000000000E+00
                       2.5465000000E+00  2.5465000000E+00  2.5465000000E+00
            xcart5     0.0000000000E+00  0.0000000000E+00  0.0000000000E+00
                       2.5470000000E+00  2.5470000000E+00  2.5470000000E+00
            xcart6     0.0000000000E+00  0.0000000000E+00  0.0000000000E+00
                       2.5475000000E+00  2.5475000000E+00  2.5475000000E+00
            xcart7     0.0000000000E+00  0.0000000000E+00  0.0000000000E+00
                       2.5480000000E+00  2.5480000000E+00  2.5480000000E+00
            xcart8     0.0000000000E+00  0.0000000000E+00  0.0000000000E+00
                       2.5485000000E+00  2.5485000000E+00  2.5485000000E+00
            xcart9     0.0000000000E+00  0.0000000000E+00  0.0000000000E+00
                       2.5490000000E+00  2.5490000000E+00  2.5490000000E+00
            xcart10    0.0000000000E+00  0.0000000000E+00  0.0000000000E+00
                       2.5495000000E+00  2.5495000000E+00  2.5495000000E+00
            xcart11    0.0000000000E+00  0.0000000000E+00  0.0000000000E+00
                       2.5500000000E+00  2.5500000000E+00  2.5500000000E+00
            xcart12    0.0000000000E+00  0.0000000000E+00  0.0000000000E+00
                       2.5505000000E+00  2.5505000000E+00  2.5505000000E+00
            xcart13    0.0000000000E+00  0.0000000000E+00  0.0000000000E+00
                       2.5510000000E+00  2.5510000000E+00  2.5510000000E+00
            xcart14    0.0000000000E+00  0.0000000000E+00  0.0000000000E+00
                       2.5515000000E+00  2.5515000000E+00  2.5515000000E+00
            xcart15    0.0000000000E+00  0.0000000000E+00  0.0000000000E+00
                       2.5520000000E+00  2.5520000000E+00  2.5520000000E+00
            xcart16    0.0000000000E+00  0.0000000000E+00  0.0000000000E+00
                       2.5525000000E+00  2.5525000000E+00  2.5525000000E+00
            xcart17    0.0000000000E+00  0.0000000000E+00  0.0000000000E+00
                       2.5530000000E+00  2.5530000000E+00  2.5530000000E+00
             xred      0.0000000000E+00  0.0000000000E+00  0.0000000000E+00
                       2.5000000000E-01  2.5000000000E-01  2.5000000000E-01
            znucl       14.00000

================================================================================


- Timing analysis has been suppressed with timopt=0



================================================================================

 Suggested references for the acknowledgment of ABINIT usage.

 The users of ABINIT have little formal obligations with respect to the ABINIT group
 (those specified in the GNU General Public License, http://www.gnu.org/copyleft/gpl.txt).
 However, it is common practice in the scientific literature,
 to acknowledge the efforts of people that have made the research possible.
 In this spirit, please find below suggested citations of work written by ABINIT developers,
 corresponding to implementations inside of ABINIT that you have used in the present run.
 Note also that it will be of great value to readers of publications presenting these results,
 to read papers enabling them to understand the theoretical formalism and details
 of the ABINIT implementation.
 For information on why they are suggested, see also http://www.abinit.org/about/?text=acknowledgments.

 [1] ABINIT : First-principles approach of materials and nanosystem properties.
 X. Gonze, B. Amadon, P.-M. Anglade, J.-M. Beuken, F. Bottin, P. Boulanger, F. Bruneval,
 D. Caliste, R. Caracas, M. Cote, T. Deutsch, L. Genovese, Ph. Ghosez, M. Giantomassi
 S. Goedecker, D.R. Hamann, P. Hermet, F. Jollet, G. Jomard, S. Leroux, M. Mancini, S. Mazevet,
 M.J.T. Oliveira, G. Onida, Y. Pouillon, T. Rangel, G.-M. Rignanese, D. Sangalli, R. Shaltaf,
 M. Torrent, M.J. Verstraete, G. Zerah, J.W. Zwanziger
 Computer Phys. Comm. 180, 2582-2615 (2009).
 Comment : the third generic paper describing the ABINIT project.
 Note that a version of this paper, that is not formatted for Computer Phys. Comm. 
 is available at http://www.abinit.org/about/ABINIT_CPC_v10.pdf .
 The licence allows the authors to put it on the Web.

 [2] A brief introduction to the ABINIT software package.
 X. Gonze, G.-M. Rignanese, M. Verstraete, J.-M. Beuken, Y. Pouillon, R. Caracas, F. Jollet,
 M. Torrent, G. Zerah, M. Mikami, Ph. Ghosez, M. Veithen, J.-Y. Raty, V. Olevano, F. Bruneval,
 L. Reining, R. Godby, G. Onida, D.R. Hamann, and D.C. Allan.
 Z. Kristallogr. 220, 558-562 (2005).
 Comment : the second generic paper describing the ABINIT project. Note that this paper
 should be cited especially if you are using the GW part of ABINIT, as several authors
 of this part are not in the list of authors of the first or third paper.
 The .pdf of the latter paper is available at http://www.abinit.org/about/zfk_0505-06_558-562.pdf.
 Note that it should not redistributed (Copyright by Oldenburg Wissenshaftverlag,
 the licence allows the authors to put it on the Web).


 And optionally :

 [3] First-principles computation of material properties : the ABINIT software project. 
 X. Gonze, J.-M. Beuken, R. Caracas, F. Detraux, M. Fuchs, G.-M. Rignanese, L. Sindic,
 M. Verstraete, G. Zerah, F. Jollet, M. Torrent, A. Roy, M. Mikami, Ph. Ghosez, J.-Y. Raty, D.C. Allan.
 Computational Materials Science 25, 478-492 (2002). http://dx.doi.org/10.1016/S0927-0256(02)00325-7
 Comment : the original paper describing the ABINIT project.

 [4] Fast radix 2, 3, 4 and 5 kernels for Fast Fourier Transformations
 on computers with overlapping multiply-add instructions.
 S. Goedecker, SIAM J. on Scientific Computing 18, 1605 (1997).
-
- Proc.   0 individual time (sec): cpu=         22.4  wall=         24.3

================================================================================

 Calculation completed.
.Delivered    1 WARNINGs and  34 COMMENTs to log file.
+Overall time at end (sec) : cpu=        346.6  wall=        364.4
