
.Version 7.2.2 of ABINIT 
.(MPI version, prepared for a x86_64_linux_intel13.1 computer) 

.Copyright (C) 1998-2013 ABINIT group . 
 ABINIT comes with ABSOLUTELY NO WARRANTY.
 It is free software, and you are welcome to redistribute it
 under certain conditions (GNU General Public License,
 see ~abinit/COPYING or http://www.gnu.org/copyleft/gpl.txt).

 ABINIT is a project of the Universite Catholique de Louvain,
 Corning Inc. and other collaborators, see ~abinit/doc/developers/contributors.txt .
 Please read ~abinit/doc/users/acknowledgments.html for suggested
 acknowledgments of the ABINIT effort.
 For more information, see http://www.abinit.org .

.Starting date : Thu 22 Aug 2013.
- ( at 17h05 )
  
- input  file    -> tbase3_5.in
- output file    -> tbase3_5.out
- root for input  files -> in_tbase3
- root for output files -> out_tbase3


 DATASET    1 : space group Fd -3 m (#227); Bravais cF (face-center cubic)
================================================================================
 Values of the parameters that define the memory need for DATASET  1.
   intxc =         0  ionmov =         0    iscf =         7 xclevel =         1
  lmnmax =         2   lnmax =         2   mband =         5  mffmem =         1
P  mgfft =        30   mkmem =       408 mpssoang=         3     mpw =      1156
  mqgrid =      3001   natom =         2    nfft =     27000    nkpt =       408
  nloalg =         4  nspden =         1 nspinor =         1  nsppol =         1
    nsym =        48  n1xccc =      2501  ntypat =         1  occopt =         1
================================================================================
P This job should need less than                      50.065 Mbytes of memory.
  Rough estimation (10% accuracy) of disk space for files :
_ WF disk file :     35.986 Mbytes ; DEN or POT disk file :      0.208 Mbytes.
================================================================================


 DATASET    2 : space group Fd -3 m (#227); Bravais cF (face-center cubic)
================================================================================
 Values of the parameters that define the memory need for DATASET  2.
   intxc =         0  ionmov =         0    iscf =        -2 xclevel =         1
  lmnmax =         2   lnmax =         2   mband =        10  mffmem =         1
P  mgfft =        30   mkmem =        40 mpssoang=         3     mpw =      1159
  mqgrid =      3001   natom =         2    nfft =     27000    nkpt =        40
  nloalg =         4  nspden =         1 nspinor =         1  nsppol =         1
    nsym =        48  n1xccc =      2501  ntypat =         1  occopt =         1
================================================================================
P This job should need less than                      12.745 Mbytes of memory.
  Rough estimation (10% accuracy) of disk space for files :
_ WF disk file :      7.076 Mbytes ; DEN or POT disk file :      0.208 Mbytes.
================================================================================

--------------------------------------------------------------------------------
------------- Echo of variables that govern the present computation ------------
--------------------------------------------------------------------------------
-
- outvars: echo of selected default values                                      
-   accesswff0 =  0 , fftalg0 =312 , wfoptalg0 =  0
-
- outvars: echo of global parameters not present in the input file              
-  max_nthreads =    1
-
 -outvars: echo values of preprocessed input variables --------
            acell      1.0216000000E+01  1.0216000000E+01  1.0216000000E+01 Bohr
              amu      2.80855000E+01
           diemac      1.20000000E+01
             ecut      2.00000000E+01 Hartree
           enunit1          0
           enunit2          1
           getden1          0
           getden2         -1
             iscf1          7
             iscf2         -2
           istwfk2       3    0    0    0    0    0    0    0    0    0
                         2    0    0    0    0    0    0    0    0    0
                         0    0    8    0    0    0    0    0    0    0
                         0    0    0    0    0    0    0    0    0    0
                       outvar_i_n : Printing only first  50 k-points.
           jdtset        1    2
              kpt1    -3.12500000E-02 -6.25000000E-02  0.00000000E+00
                      -3.12500000E-02 -1.25000000E-01  0.00000000E+00
                      -6.25000000E-02 -9.37500000E-02  0.00000000E+00
                      -3.12500000E-02 -9.37500000E-02  3.12500000E-02
                      -3.12500000E-02 -1.87500000E-01  0.00000000E+00
                      -6.25000000E-02 -1.56250000E-01  0.00000000E+00
                      -3.12500000E-02 -1.56250000E-01  3.12500000E-02
                      -9.37500000E-02 -1.25000000E-01  0.00000000E+00
                      -6.25000000E-02 -1.25000000E-01  3.12500000E-02
                      -3.12500000E-02 -1.25000000E-01  6.25000000E-02
                      -3.12500000E-02 -2.50000000E-01  0.00000000E+00
                      -6.25000000E-02 -2.18750000E-01  0.00000000E+00
                      -3.12500000E-02 -2.18750000E-01  3.12500000E-02
                      -9.37500000E-02 -1.87500000E-01  0.00000000E+00
                      -6.25000000E-02 -1.87500000E-01  3.12500000E-02
                      -3.12500000E-02 -1.87500000E-01  6.25000000E-02
                      -1.25000000E-01 -1.56250000E-01  0.00000000E+00
                      -9.37500000E-02 -1.56250000E-01  3.12500000E-02
                      -6.25000000E-02 -1.56250000E-01  6.25000000E-02
                      -3.12500000E-02 -1.56250000E-01  9.37500000E-02
                      -3.12500000E-02 -3.12500000E-01  0.00000000E+00
                      -6.25000000E-02 -2.81250000E-01  0.00000000E+00
                      -3.12500000E-02 -2.81250000E-01  3.12500000E-02
                      -9.37500000E-02 -2.50000000E-01  0.00000000E+00
                      -6.25000000E-02 -2.50000000E-01  3.12500000E-02
                      -3.12500000E-02 -2.50000000E-01  6.25000000E-02
                      -1.25000000E-01 -2.18750000E-01  0.00000000E+00
                      -9.37500000E-02 -2.18750000E-01  3.12500000E-02
                      -6.25000000E-02 -2.18750000E-01  6.25000000E-02
                      -3.12500000E-02 -2.18750000E-01  9.37500000E-02
                      -1.56250000E-01 -1.87500000E-01  0.00000000E+00
                      -1.25000000E-01 -1.87500000E-01  3.12500000E-02
                      -9.37500000E-02 -1.87500000E-01  6.25000000E-02
                      -6.25000000E-02 -1.87500000E-01  9.37500000E-02
                      -3.12500000E-02 -1.87500000E-01  1.25000000E-01
                      -3.12500000E-02 -3.75000000E-01  0.00000000E+00
                      -6.25000000E-02 -3.43750000E-01  0.00000000E+00
                      -3.12500000E-02 -3.43750000E-01  3.12500000E-02
                      -9.37500000E-02 -3.12500000E-01  0.00000000E+00
                      -6.25000000E-02 -3.12500000E-01  3.12500000E-02
                      -3.12500000E-02 -3.12500000E-01  6.25000000E-02
                      -1.25000000E-01 -2.81250000E-01  0.00000000E+00
                      -9.37500000E-02 -2.81250000E-01  3.12500000E-02
                      -6.25000000E-02 -2.81250000E-01  6.25000000E-02
                      -3.12500000E-02 -2.81250000E-01  9.37500000E-02
                      -1.56250000E-01 -2.50000000E-01  0.00000000E+00
                      -1.25000000E-01 -2.50000000E-01  3.12500000E-02
                      -9.37500000E-02 -2.50000000E-01  6.25000000E-02
                      -6.25000000E-02 -2.50000000E-01  9.37500000E-02
                      -3.12500000E-02 -2.50000000E-01  1.25000000E-01
              kpt2     5.00000000E-01  0.00000000E+00  0.00000000E+00
                       4.50000000E-01  0.00000000E+00  0.00000000E+00
                       4.00000000E-01  0.00000000E+00  0.00000000E+00
                       3.50000000E-01  0.00000000E+00  0.00000000E+00
                       3.00000000E-01  0.00000000E+00  0.00000000E+00
                       2.50000000E-01  0.00000000E+00  0.00000000E+00
                       2.00000000E-01  0.00000000E+00  0.00000000E+00
                       1.50000000E-01  0.00000000E+00  0.00000000E+00
                       1.00000000E-01  0.00000000E+00  0.00000000E+00
                       5.00000000E-02  0.00000000E+00  0.00000000E+00
                       0.00000000E+00  0.00000000E+00  0.00000000E+00
                       0.00000000E+00  4.16666667E-02  4.16666667E-02
                       0.00000000E+00  8.33333333E-02  8.33333333E-02
                       0.00000000E+00  1.25000000E-01  1.25000000E-01
                       0.00000000E+00  1.66666667E-01  1.66666667E-01
                       0.00000000E+00  2.08333333E-01  2.08333333E-01
                       0.00000000E+00  2.50000000E-01  2.50000000E-01
                       0.00000000E+00  2.91666667E-01  2.91666667E-01
                       0.00000000E+00  3.33333333E-01  3.33333333E-01
                       0.00000000E+00  3.75000000E-01  3.75000000E-01
                       0.00000000E+00  4.16666667E-01  4.16666667E-01
                       0.00000000E+00  4.58333333E-01  4.58333333E-01
                       0.00000000E+00  5.00000000E-01  5.00000000E-01
                       5.88235294E-02  5.29411765E-01  5.29411765E-01
                       1.17647059E-01  5.58823529E-01  5.58823529E-01
                       1.76470588E-01  5.88235294E-01  5.88235294E-01
                       2.35294118E-01  6.17647059E-01  6.17647059E-01
                       2.94117647E-01  6.47058824E-01  6.47058824E-01
                       3.52941176E-01  6.76470588E-01  6.76470588E-01
                       4.11764706E-01  7.05882353E-01  7.05882353E-01
                       4.70588235E-01  7.35294118E-01  7.35294118E-01
                       5.29411765E-01  7.64705882E-01  7.64705882E-01
                       5.88235294E-01  7.94117647E-01  7.94117647E-01
                       6.47058824E-01  8.23529412E-01  8.23529412E-01
                       7.05882353E-01  8.52941176E-01  8.52941176E-01
                       7.64705882E-01  8.82352941E-01  8.82352941E-01
                       8.23529412E-01  9.11764706E-01  9.11764706E-01
                       8.82352941E-01  9.41176471E-01  9.41176471E-01
                       9.41176471E-01  9.70588235E-01  9.70588235E-01
                       1.00000000E+00  1.00000000E+00  1.00000000E+00
                       outvar_i_n : Printing only first  50 k-points.
           kptopt1          1
           kptopt2         -3
         kptrlatt       16  -16   16    -16   16   16    -16  -16   16
          kptrlen1     1.63456000E+02
          kptrlen2     3.00000000E+01
P           mkmem1        408
P           mkmem2         40
            natom           2
            nband1          5
            nband2         10
           nbdbuf1          0
           nbdbuf2          2
           ndtset           2
            ngfft          30      30      30
             nkpt1        408
             nkpt2         40
            nstep          50
             nsym          48
           ntypat           1
              occ      2.000000  2.000000  2.000000  2.000000  0.000000
        optforces           1
            rprim      0.0000000000E+00  5.0000000000E-01  5.0000000000E-01
                       5.0000000000E-01  0.0000000000E+00  5.0000000000E-01
                       5.0000000000E-01  5.0000000000E-01  0.0000000000E+00
           shiftk      5.00000000E-01  5.00000000E-01  5.00000000E-01
          spgroup         227
           symrel      1  0  0   0  1  0   0  0  1      -1  0  0   0 -1  0   0  0 -1
                       0 -1  1   0 -1  0   1 -1  0       0  1 -1   0  1  0  -1  1  0
                      -1  0  0  -1  0  1  -1  1  0       1  0  0   1  0 -1   1 -1  0
                       0  1 -1   1  0 -1   0  0 -1       0 -1  1  -1  0  1   0  0  1
                      -1  0  0  -1  1  0  -1  0  1       1  0  0   1 -1  0   1  0 -1
                       0 -1  1   1 -1  0   0 -1  0       0  1 -1  -1  1  0   0  1  0
                       1  0  0   0  0  1   0  1  0      -1  0  0   0  0 -1   0 -1  0
                       0  1 -1   0  0 -1   1  0 -1       0 -1  1   0  0  1  -1  0  1
                      -1  0  1  -1  1  0  -1  0  0       1  0 -1   1 -1  0   1  0  0
                       0 -1  0   1 -1  0   0 -1  1       0  1  0  -1  1  0   0  1 -1
                       1  0 -1   0  0 -1   0  1 -1      -1  0  1   0  0  1   0 -1  1
                       0  1  0   0  0  1   1  0  0       0 -1  0   0  0 -1  -1  0  0
                       1  0 -1   0  1 -1   0  0 -1      -1  0  1   0 -1  1   0  0  1
                       0 -1  0   0 -1  1   1 -1  0       0  1  0   0  1 -1  -1  1  0
                      -1  0  1  -1  0  0  -1  1  0       1  0 -1   1  0  0   1 -1  0
                       0  1  0   1  0  0   0  0  1       0 -1  0  -1  0  0   0  0 -1
                       0  0 -1   0  1 -1   1  0 -1       0  0  1   0 -1  1  -1  0  1
                       1 -1  0   0 -1  1   0 -1  0      -1  1  0   0  1 -1   0  1  0
                       0  0  1   1  0  0   0  1  0       0  0 -1  -1  0  0   0 -1  0
                      -1  1  0  -1  0  0  -1  0  1       1 -1  0   1  0  0   1  0 -1
                       0  0  1   0  1  0   1  0  0       0  0 -1   0 -1  0  -1  0  0
                       1 -1  0   0 -1  0   0 -1  1      -1  1  0   0  1  0   0  1 -1
                       0  0 -1   1  0 -1   0  1 -1       0  0  1  -1  0  1   0 -1  1
                      -1  1  0  -1  0  1  -1  0  0       1 -1  0   1  0 -1   1  0  0
            tnons      0.0000000  0.0000000  0.0000000     0.2500000  0.2500000  0.2500000
                       0.0000000  0.0000000  0.0000000     0.2500000  0.2500000  0.2500000
                       0.0000000  0.0000000  0.0000000     0.2500000  0.2500000  0.2500000
                       0.0000000  0.0000000  0.0000000     0.2500000  0.2500000  0.2500000
                       0.0000000  0.0000000  0.0000000     0.2500000  0.2500000  0.2500000
                       0.0000000  0.0000000  0.0000000     0.2500000  0.2500000  0.2500000
                       0.0000000  0.0000000  0.0000000     0.2500000  0.2500000  0.2500000
                       0.0000000  0.0000000  0.0000000     0.2500000  0.2500000  0.2500000
                       0.0000000  0.0000000  0.0000000     0.2500000  0.2500000  0.2500000
                       0.0000000  0.0000000  0.0000000     0.2500000  0.2500000  0.2500000
                       0.0000000  0.0000000  0.0000000     0.2500000  0.2500000  0.2500000
                       0.0000000  0.0000000  0.0000000     0.2500000  0.2500000  0.2500000
                       0.0000000  0.0000000  0.0000000     0.2500000  0.2500000  0.2500000
                       0.0000000  0.0000000  0.0000000     0.2500000  0.2500000  0.2500000
                       0.0000000  0.0000000  0.0000000     0.2500000  0.2500000  0.2500000
                       0.0000000  0.0000000  0.0000000     0.2500000  0.2500000  0.2500000
                       0.0000000  0.0000000  0.0000000     0.2500000  0.2500000  0.2500000
                       0.0000000  0.0000000  0.0000000     0.2500000  0.2500000  0.2500000
                       0.0000000  0.0000000  0.0000000     0.2500000  0.2500000  0.2500000
                       0.0000000  0.0000000  0.0000000     0.2500000  0.2500000  0.2500000
                       0.0000000  0.0000000  0.0000000     0.2500000  0.2500000  0.2500000
                       0.0000000  0.0000000  0.0000000     0.2500000  0.2500000  0.2500000
                       0.0000000  0.0000000  0.0000000     0.2500000  0.2500000  0.2500000
                       0.0000000  0.0000000  0.0000000     0.2500000  0.2500000  0.2500000
           toldfe1     1.00000000E-09 Hartree
           toldfe2     0.00000000E+00 Hartree
           tolwfr1     0.00000000E+00
           tolwfr2     1.00000000E-12
            typat      1  1
              wtk1       0.00146    0.00146    0.00146    0.00293    0.00146    0.00146
                         0.00293    0.00146    0.00293    0.00293    0.00146    0.00146
                         0.00293    0.00146    0.00293    0.00293    0.00146    0.00293
                         0.00293    0.00293    0.00146    0.00146    0.00293    0.00146
                         0.00293    0.00293    0.00146    0.00293    0.00293    0.00293
                         0.00146    0.00293    0.00293    0.00293    0.00293    0.00146
                         0.00146    0.00293    0.00146    0.00293    0.00293    0.00146
                         0.00293    0.00293    0.00293    0.00146    0.00293    0.00293
                         0.00293    0.00293
              wtk2       1.00000    1.00000    1.00000    1.00000    1.00000    1.00000
                         1.00000    1.00000    1.00000    1.00000    1.00000    1.00000
                         1.00000    1.00000    1.00000    1.00000    1.00000    1.00000
                         1.00000    1.00000    1.00000    1.00000    1.00000    1.00000
                         1.00000    1.00000    1.00000    1.00000    1.00000    1.00000
                         1.00000    1.00000    1.00000    1.00000    1.00000    1.00000
                         1.00000    1.00000    1.00000    1.00000
                       outvars : Printing only first  50 k-points.
           xangst      0.0000000000E+00  0.0000000000E+00  0.0000000000E+00
                       1.3515185907E+00  1.3515185907E+00  1.3515185907E+00
            xcart      0.0000000000E+00  0.0000000000E+00  0.0000000000E+00
                       2.5540000000E+00  2.5540000000E+00  2.5540000000E+00
             xred      0.0000000000E+00  0.0000000000E+00  0.0000000000E+00
                       2.5000000000E-01  2.5000000000E-01  2.5000000000E-01
            znucl       14.00000

================================================================================

 chkinp: Checking input parameters for consistency, jdtset=   1.

 chkinp: Checking input parameters for consistency, jdtset=   2.

================================================================================
== DATASET  1 ==================================================================
-   nproc =    1

 Exchange-correlation functional for the present dataset will be:
  LDA: new Teter (4/93) with spin-polarized option - ixc=1
 Citation for XC functional:
  S. Goedecker, M. Teter, J. Huetter, PRB 54, 1703 (1996)
 
 Real(R)+Recip(G) space primitive vectors, cartesian coordinates (Bohr,Bohr^-1):
 R(1)=  0.0000000  5.1080000  5.1080000  G(1)= -0.0978857  0.0978857  0.0978857
 R(2)=  5.1080000  0.0000000  5.1080000  G(2)=  0.0978857 -0.0978857  0.0978857
 R(3)=  5.1080000  5.1080000  0.0000000  G(3)=  0.0978857  0.0978857 -0.0978857
 Unit cell volume ucvol=  2.6655244E+02 bohr^3
 Angles (23,13,12)=  6.00000000E+01  6.00000000E+01  6.00000000E+01 degrees

 getcut: wavevector=  0.0000  0.0000  0.0000  ngfft=  30  30  30
         ecut(hartree)=     20.000   => boxcut(ratio)=   2.06518

--- Pseudopotential description ------------------------------------------------
- pspini: atom type   1  psp file is /work/02288/mgs763/abinit-7.2.2_src/tests/Psps_for_tests/14si.pspnc
- pspatm: opening atomic psp file    /work/02288/mgs763/abinit-7.2.2_src/tests/Psps_for_tests/14si.pspnc
-  Troullier-Martins psp for element  Si        Thu Oct 27 17:31:21 EDT 1994
- 14.00000   4.00000    940714                znucl, zion, pspdat
    1    1    2    2      2001   0.00000      pspcod,pspxc,lmax,lloc,mmax,r2well
    0   5.907  14.692    1   2.0872718        l,e99.0,e99.9,nproj,rcpsp
   0.00000000   0.00000000   0.00000000   0.00000000     rms, ekb1, ekb2, epsatm
    1   2.617   4.181    1   2.0872718        l,e99.0,e99.9,nproj,rcpsp
   0.00000000   0.00000000   0.00000000   0.00000000     rms, ekb1, ekb2, epsatm
    2   0.000   0.000    0   2.0872718        l,e99.0,e99.9,nproj,rcpsp
   0.00000000   0.00000000   0.00000000   0.00000000     rms, ekb1, ekb2, epsatm
    1.80626423934776    0.22824404341771    1.17378968127746   rchrg,fchrg,qchrg
 pspatm: epsatm=    1.43386982
         --- l  ekb(1:nproj) -->
             0    3.287949
             1    1.849886
 pspatm: atomic psp has been read  and splines computed

   2.29419171E+01                                ecore*ucvol(ha*bohr**3)
--------------------------------------------------------------------------------

P newkpt: treating      5 bands with npw=    1146 for ikpt=   1 by node    0
P newkpt: treating      5 bands with npw=    1148 for ikpt=   2 by node    0
P newkpt: treating      5 bands with npw=    1149 for ikpt=   3 by node    0
P newkpt: treating      5 bands with npw=    1149 for ikpt=   4 by node    0
P newkpt: treating      5 bands with npw=    1152 for ikpt=   5 by node    0
P newkpt: treating      5 bands with npw=    1149 for ikpt=   6 by node    0
P newkpt: treating      5 bands with npw=    1149 for ikpt=   7 by node    0
P newkpt: treating      5 bands with npw=    1153 for ikpt=   8 by node    0
P newkpt: treating      5 bands with npw=    1151 for ikpt=   9 by node    0
P newkpt: treating      5 bands with npw=    1151 for ikpt=  10 by node    0
P newkpt: treating      5 bands with npw=    1138 for ikpt=  11 by node    0
P newkpt: treating      5 bands with npw=    1143 for ikpt=  12 by node    0
P newkpt: treating      5 bands with npw=    1141 for ikpt=  13 by node    0
P newkpt: treating      5 bands with npw=    1153 for ikpt=  14 by node    0
P newkpt: treating      5 bands with npw=    1149 for ikpt=  15 by node    0
P newkpt: treating      5 bands with npw=    1141 for ikpt=  16 by node    0
P newkpt: treating      5 bands with npw=    1152 for ikpt=  17 by node    0
P newkpt: treating      5 bands with npw=    1148 for ikpt=  18 by node    0
P newkpt: treating      5 bands with npw=    1149 for ikpt=  19 by node    0
P newkpt: treating      5 bands with npw=    1145 for ikpt=  20 by node    0
P newkpt: treating      5 bands with npw=    1145 for ikpt=  21 by node    0
P newkpt: treating      5 bands with npw=    1134 for ikpt=  22 by node    0
P newkpt: treating      5 bands with npw=    1137 for ikpt=  23 by node    0
P newkpt: treating      5 bands with npw=    1135 for ikpt=  24 by node    0
P newkpt: treating      5 bands with npw=    1134 for ikpt=  25 by node    0
P newkpt: treating      5 bands with npw=    1133 for ikpt=  26 by node    0
P newkpt: treating      5 bands with npw=    1148 for ikpt=  27 by node    0
P newkpt: treating      5 bands with npw=    1140 for ikpt=  28 by node    0
P newkpt: treating      5 bands with npw=    1138 for ikpt=  29 by node    0
P newkpt: treating      5 bands with npw=    1133 for ikpt=  30 by node    0
P newkpt: treating      5 bands with npw=    1149 for ikpt=  31 by node    0
P newkpt: treating      5 bands with npw=    1145 for ikpt=  32 by node    0
P newkpt: treating      5 bands with npw=    1143 for ikpt=  33 by node    0
P newkpt: treating      5 bands with npw=    1141 for ikpt=  34 by node    0
P newkpt: treating      5 bands with npw=    1136 for ikpt=  35 by node    0
P newkpt: treating      5 bands with npw=    1143 for ikpt=  36 by node    0
P newkpt: treating      5 bands with npw=    1136 for ikpt=  37 by node    0
P newkpt: treating      5 bands with npw=    1140 for ikpt=  38 by node    0
P newkpt: treating      5 bands with npw=    1131 for ikpt=  39 by node    0
P newkpt: treating      5 bands with npw=    1136 for ikpt=  40 by node    0
P newkpt: treating      5 bands with npw=    1135 for ikpt=  41 by node    0
P newkpt: treating      5 bands with npw=    1137 for ikpt=  42 by node    0
P newkpt: treating      5 bands with npw=    1136 for ikpt=  43 by node    0
P newkpt: treating      5 bands with npw=    1133 for ikpt=  44 by node    0
P newkpt: treating      5 bands with npw=    1136 for ikpt=  45 by node    0
P newkpt: treating      5 bands with npw=    1143 for ikpt=  46 by node    0
P newkpt: treating      5 bands with npw=    1134 for ikpt=  47 by node    0
P newkpt: treating      5 bands with npw=    1136 for ikpt=  48 by node    0
P newkpt: treating      5 bands with npw=    1136 for ikpt=  49 by node    0
P newkpt: treating      5 bands with npw=    1137 for ikpt=  50 by node    0
 newkpt: prtvol=0 or 1, do not print more k-points.
 
_setup2: Arith. and geom. avg. npw (full set) are    1138.760    1138.753

================================================================================

     iter   Etot(hartree)      deltaE(h)  residm     vres2    diffor    maxfor
 ETOT  1  -8.8701943579172    -8.870E+00 1.894E-02 1.988E+01 0.000E+00 0.000E+00
 ETOT  2  -8.8769203701928    -6.726E-03 2.345E-03 5.245E-01 0.000E+00 0.000E+00
 ETOT  3  -8.8769964442651    -7.607E-05 2.375E-04 1.034E-02 0.000E+00 0.000E+00
 ETOT  4  -8.8769973940770    -9.498E-07 3.900E-04 4.444E-05 0.000E+00 0.000E+00
 ETOT  5  -8.8769974000952    -6.018E-09 3.486E-05 6.223E-08 0.000E+00 0.000E+00
 ETOT  6  -8.8769974001076    -1.238E-11 7.787E-05 5.111E-10 0.000E+00 0.000E+00
 ETOT  7  -8.8769974001076     4.441E-14 7.328E-06 1.895E-12 0.000E+00 0.000E+00

 At SCF step    7, etot is converged : 
  for the second time, diff in etot=  4.441E-14 < toldfe=  1.000E-09

 Cartesian components of stress tensor (hartree/bohr^3)
  sigma(1 1)=  1.48477791E-05  sigma(3 2)=  0.00000000E+00
  sigma(2 2)=  1.48477791E-05  sigma(3 1)=  0.00000000E+00
  sigma(3 3)=  1.48477791E-05  sigma(2 1)=  0.00000000E+00
 
================================================================================

 ----iterations are completed or convergence reached----

 Mean square residual over all n,k,spin=   1.9878E-08; max=  7.3277E-06
  -0.0312 -0.0625  0.0000    1  3.55155E-06 kpt; spin; max resid(k); each band:
  1.13E-16 1.19E-16 5.37E-17 9.14E-17 3.55E-06
  -0.0312 -0.1250  0.0000    1  2.66867E-07 kpt; spin; max resid(k); each band:
  3.48E-16 3.62E-16 1.06E-16 1.90E-16 2.67E-07
  -0.0625 -0.0938  0.0000    1  3.12290E-10 kpt; spin; max resid(k); each band:
  2.56E-16 6.77E-17 1.17E-16 9.61E-17 3.12E-10
  -0.0312 -0.0938  0.0313    1  3.35656E-07 kpt; spin; max resid(k); each band:
  2.48E-16 1.01E-16 2.45E-16 6.50E-17 3.36E-07
  -0.0312 -0.1875  0.0000    1  2.89029E-11 kpt; spin; max resid(k); each band:
  5.16E-16 5.91E-16 6.45E-17 1.59E-16 2.89E-11
  -0.0625 -0.1562  0.0000    1  2.78003E-09 kpt; spin; max resid(k); each band:
  4.47E-16 2.33E-16 7.79E-17 3.55E-16 2.78E-09
  -0.0312 -0.1562  0.0313    1  4.63327E-08 kpt; spin; max resid(k); each band:
  4.89E-16 4.46E-16 2.59E-16 1.62E-16 4.63E-08
  -0.0938 -0.1250  0.0000    1  1.15516E-13 kpt; spin; max resid(k); each band:
  4.14E-16 6.51E-17 7.98E-17 1.49E-16 1.16E-13
  -0.0625 -0.1250  0.0313    1  4.93140E-11 kpt; spin; max resid(k); each band:
  4.08E-16 9.40E-17 2.59E-16 9.53E-17 4.93E-11
  -0.0312 -0.1250  0.0625    1  1.23894E-07 kpt; spin; max resid(k); each band:
  3.86E-16 1.15E-16 4.26E-16 7.54E-17 1.24E-07
  -0.0312 -0.2500  0.0000    1  1.74801E-13 kpt; spin; max resid(k); each band:
  6.19E-16 8.05E-16 3.91E-17 1.53E-16 1.75E-13
  -0.0625 -0.2188  0.0000    1  3.18820E-09 kpt; spin; max resid(k); each band:
  6.22E-16 5.56E-16 5.16E-17 4.83E-16 3.19E-09
  -0.0312 -0.2188  0.0313    1  2.85230E-10 kpt; spin; max resid(k); each band:
  6.01E-16 7.02E-16 2.26E-16 1.35E-16 2.85E-10
  -0.0938 -0.1875  0.0000    1  1.89329E-12 kpt; spin; max resid(k); each band:
  5.62E-16 2.01E-16 5.64E-17 4.06E-16 1.89E-12
  -0.0625 -0.1875  0.0313    1  7.57778E-10 kpt; spin; max resid(k); each band:
  5.84E-16 3.15E-16 3.20E-16 2.66E-16 7.58E-10
  -0.0312 -0.1875  0.0625    1  4.01601E-09 kpt; spin; max resid(k); each band:
  5.60E-16 5.21E-16 4.14E-16 1.08E-16 4.02E-09
  -0.1250 -0.1562  0.0000    1  3.11098E-15 kpt; spin; max resid(k); each band:
  5.63E-16 4.97E-17 5.70E-17 1.33E-16 3.11E-15
  -0.0938 -0.1562  0.0313    1  5.43792E-14 kpt; spin; max resid(k); each band:
  5.56E-16 9.03E-17 2.54E-16 1.20E-16 5.44E-14
  -0.0625 -0.1562  0.0625    1  7.94352E-11 kpt; spin; max resid(k); each band:
  5.33E-16 1.00E-16 4.63E-16 7.69E-17 7.94E-11
  -0.0312 -0.1562  0.0938    1  2.98796E-07 kpt; spin; max resid(k); each band:
  4.76E-16 1.47E-16 5.61E-16 5.03E-17 2.99E-07
  -0.0312 -0.3125  0.0000    1  1.86378E-14 kpt; spin; max resid(k); each band:
  6.19E-16 1.02E-15 2.59E-17 1.46E-16 1.86E-14
  -0.0625 -0.2812  0.0000    1  2.96630E-12 kpt; spin; max resid(k); each band:
  6.66E-16 8.14E-16 3.66E-17 4.33E-16 2.97E-12
  -0.0312 -0.2812  0.0313    1  8.40796E-13 kpt; spin; max resid(k); each band:
  6.31E-16 9.27E-16 2.18E-16 1.14E-16 8.41E-13
  -0.0938 -0.2500  0.0000    1  3.51773E-11 kpt; spin; max resid(k); each band:
  6.83E-16 4.37E-16 4.17E-17 6.12E-16 3.52E-11
  -0.0625 -0.2500  0.0313    1  5.89044E-11 kpt; spin; max resid(k); each band:
  6.76E-16 6.40E-16 3.31E-16 2.84E-16 5.89E-11
  -0.0312 -0.2500  0.0625    1  4.14652E-11 kpt; spin; max resid(k); each band:
  6.10E-16 8.05E-16 3.80E-16 8.97E-17 4.15E-11
  -0.1250 -0.2188  0.0000    1  2.97091E-15 kpt; spin; max resid(k); each band:
  6.71E-16 1.89E-16 4.32E-17 4.42E-16 2.97E-15
  -0.0938 -0.2188  0.0313    1  1.27540E-13 kpt; spin; max resid(k); each band:
  6.65E-16 2.70E-16 3.66E-16 2.51E-16 1.28E-13
  -0.0625 -0.2188  0.0625    1  1.29169E-09 kpt; spin; max resid(k); each band:
  6.55E-16 3.83E-16 5.26E-16 1.61E-16 1.29E-09
  -0.0312 -0.2188  0.0938    1  5.24831E-09 kpt; spin; max resid(k); each band:
  5.35E-16 6.18E-16 4.61E-16 7.60E-17 5.25E-09
  -0.1562 -0.1875  0.0000    1  9.97770E-16 kpt; spin; max resid(k); each band:
  6.88E-16 3.88E-17 4.34E-17 1.23E-16 9.98E-16
  -0.1250 -0.1875  0.0313    1  1.68601E-15 kpt; spin; max resid(k); each band:
  6.76E-16 8.38E-17 2.63E-16 1.12E-16 1.69E-15
  -0.0938 -0.1875  0.0625    1  2.78737E-14 kpt; spin; max resid(k); each band:
  6.54E-16 1.02E-16 4.86E-16 9.62E-17 2.79E-14
  -0.0625 -0.1875  0.0938    1  2.27860E-09 kpt; spin; max resid(k); each band:
  6.17E-16 1.10E-16 6.41E-16 6.70E-17 2.28E-09
  -0.0312 -0.1875  0.1250    1  4.73985E-06 kpt; spin; max resid(k); each band:
  3.39E-16 3.90E-16 4.05E-16 7.10E-17 4.74E-06
  -0.0312 -0.3750  0.0000    1  4.55639E-15 kpt; spin; max resid(k); each band:
  5.25E-16 1.25E-15 1.92E-17 1.41E-16 4.56E-15
  -0.0625 -0.3438  0.0000    1  3.81345E-13 kpt; spin; max resid(k); each band:
  6.21E-16 1.04E-15 2.76E-17 3.97E-16 3.81E-13
  -0.0312 -0.3438  0.0313    1  1.31683E-13 kpt; spin; max resid(k); each band:
  5.71E-16 1.15E-15 2.25E-16 8.79E-17 1.32E-13
  -0.0938 -0.3125  0.0000    1  1.08894E-11 kpt; spin; max resid(k); each band:
  7.01E-16 7.05E-16 3.33E-17 6.04E-16 1.09E-11
  -0.0625 -0.3125  0.0313    1  2.54648E-12 kpt; spin; max resid(k); each band:
  6.55E-16 9.01E-16 3.46E-16 2.07E-16 2.55E-12
  -0.0312 -0.3125  0.0625    1  3.04241E-12 kpt; spin; max resid(k); each band:
  5.80E-16 1.05E-15 3.76E-16 7.17E-17 3.04E-12
  -0.1250 -0.2812  0.0000    1  1.31606E-14 kpt; spin; max resid(k); each band:
  7.30E-16 3.84E-16 3.50E-17 6.20E-16 1.32E-14
  -0.0938 -0.2812  0.0313    1  5.94092E-13 kpt; spin; max resid(k); each band:
  7.13E-16 5.13E-16 4.42E-16 2.42E-16 5.94E-13
  -0.0625 -0.2812  0.0625    1  6.89357E-10 kpt; spin; max resid(k); each band:
  6.66E-16 7.18E-16 5.01E-16 1.50E-16 6.89E-10
  -0.0312 -0.2812  0.0938    1  1.15173E-10 kpt; spin; max resid(k); each band:
  5.31E-16 9.15E-16 4.34E-16 6.76E-17 1.15E-10
  -0.1562 -0.2500  0.0000    1  1.82783E-15 kpt; spin; max resid(k); each band:
  7.61E-16 1.73E-16 4.51E-16 3.52E-17 1.83E-15
  -0.1250 -0.2500  0.0313    1  2.36890E-15 kpt; spin; max resid(k); each band:
  7.42E-16 2.54E-16 4.31E-16 1.94E-16 2.37E-15
  -0.0938 -0.2500  0.0625    1  2.82384E-13 kpt; spin; max resid(k); each band:
  7.15E-16 3.20E-16 5.83E-16 1.41E-16 2.82E-13
  -0.0625 -0.2500  0.0938    1  9.85884E-09 kpt; spin; max resid(k); each band:
  6.56E-16 4.72E-16 6.25E-16 1.05E-16 9.86E-09
  -0.0312 -0.2500  0.1250    1  5.18443E-10 kpt; spin; max resid(k); each band:
  4.03E-16 7.23E-16 3.96E-16 7.16E-17 5.18E-10
 outwf : prtvol=0 or 1, do not print more k-points.

 reduced coordinates (array xred) for    2 atoms
       0.000000000000      0.000000000000      0.000000000000
       0.250000000000      0.250000000000      0.250000000000
 rms dE/dt=  0.0000E+00; max dE/dt=  0.0000E+00; dE/dt below (all hartree)
    1       0.000000000000      0.000000000000      0.000000000000
    2       0.000000000000      0.000000000000      0.000000000000
 
 cartesian coordinates (angstrom) at end:
    1      0.00000000000000     0.00000000000000     0.00000000000000
    2      1.35151859073886     1.35151859073886     1.35151859073886

 cartesian forces (hartree/bohr) at end:
    1      0.00000000000000     0.00000000000000     0.00000000000000
    2      0.00000000000000     0.00000000000000     0.00000000000000
 frms,max,avg= 0.0000000E+00 0.0000000E+00   0.000E+00  0.000E+00  0.000E+00 h/b

 cartesian forces (eV/Angstrom) at end:
    1      0.00000000000000     0.00000000000000     0.00000000000000
    2      0.00000000000000     0.00000000000000     0.00000000000000
 frms,max,avg= 0.0000000E+00 0.0000000E+00   0.000E+00  0.000E+00  0.000E+00 e/A
 length scales= 10.216000000000 10.216000000000 10.216000000000 bohr
              =  5.406074362955  5.406074362955  5.406074362955 angstroms
 prteigrs : about to open file out_tbase3_DS1_EIG
 Fermi (or HOMO) energy (hartree) =   0.21601   Average Vxc (hartree)=  -0.35452
 Eigenvalues (hartree) for nkpt= 408  k points:
 kpt#   1, nband=  5, wtk=  0.00146, kpt= -0.0312 -0.0625  0.0000 (reduced coord)
  -0.22533   0.20128   0.21087   0.21340   0.30760
 kpt#   2, nband=  5, wtk=  0.00146, kpt= -0.0312 -0.1250  0.0000 (reduced coord)
  -0.22025   0.16368   0.20213   0.20836   0.30874
 kpt#   3, nband=  5, wtk=  0.00146, kpt= -0.0625 -0.0937  0.0000 (reduced coord)
  -0.22278   0.18756   0.20228   0.20541   0.30175
 kpt#   4, nband=  5, wtk=  0.00293, kpt= -0.0312 -0.0937  0.0313 (reduced coord)
  -0.22152   0.17521   0.19781   0.21099   0.30813
 kpt#   5, nband=  5, wtk=  0.00146, kpt= -0.0312 -0.1875  0.0000 (reduced coord)
  -0.21147   0.12053   0.19273   0.19992   0.30136
 kpt#   6, nband=  5, wtk=  0.00146, kpt= -0.0625 -0.1562  0.0000 (reduced coord)
  -0.21646   0.14847   0.19235   0.20045   0.30497
 kpt#   7, nband=  5, wtk=  0.00293, kpt= -0.0312 -0.1562  0.0313 (reduced coord)
  -0.21396   0.13444   0.18691   0.20442   0.30841
 kpt#   8, nband=  5, wtk=  0.00146, kpt= -0.0937 -0.1250  0.0000 (reduced coord)
  -0.21897   0.17145   0.19201   0.19456   0.29414
 kpt#   9, nband=  5, wtk=  0.00293, kpt= -0.0625 -0.1250  0.0313 (reduced coord)
  -0.21771   0.15957   0.18743   0.20207   0.30090
 kpt#  10, nband=  5, wtk=  0.00293, kpt= -0.0312 -0.1250  0.0625 (reduced coord)
  -0.21520   0.14523   0.17867   0.20795   0.31238
 kpt#  11, nband=  5, wtk=  0.00146, kpt= -0.0312 -0.2500  0.0000 (reduced coord)
  -0.19919   0.07757   0.18438   0.19088   0.29245
 kpt#  12, nband=  5, wtk=  0.00146, kpt= -0.0625 -0.2187  0.0000 (reduced coord)
  -0.20649   0.10580   0.18317   0.19171   0.30426
 kpt#  13, nband=  5, wtk=  0.00293, kpt= -0.0312 -0.2187  0.0313 (reduced coord)
  -0.20281   0.09165   0.17762   0.19561   0.30094
 kpt#  14, nband=  5, wtk=  0.00146, kpt= -0.0937 -0.1875  0.0000 (reduced coord)
  -0.21142   0.13280   0.18194   0.18871   0.29766
 kpt#  15, nband=  5, wtk=  0.00293, kpt= -0.0625 -0.1875  0.0313 (reduced coord)
  -0.20894   0.11931   0.17619   0.19523   0.30570
 kpt#  16, nband=  5, wtk=  0.00293, kpt= -0.0312 -0.1875  0.0625 (reduced coord)
  -0.20524   0.10511   0.16643   0.20045   0.31166
 kpt#  17, nband=  5, wtk=  0.00146, kpt= -0.1250 -0.1562  0.0000 (reduced coord)
  -0.21390   0.15374   0.18120   0.18283   0.28558
 kpt#  18, nband=  5, wtk=  0.00293, kpt= -0.0937 -0.1562  0.0313 (reduced coord)
  -0.21266   0.14310   0.17644   0.19054   0.29258
 kpt#  19, nband=  5, wtk=  0.00293, kpt= -0.0625 -0.1562  0.0625 (reduced coord)
  -0.21017   0.12951   0.16762   0.19861   0.30479
 kpt#  20, nband=  5, wtk=  0.00293, kpt= -0.0312 -0.1562  0.0938 (reduced coord)
  -0.20646   0.11519   0.15703   0.20313   0.31961
 kpt#  21, nband=  5, wtk=  0.00146, kpt= -0.0312 -0.3125  0.0000 (reduced coord)
  -0.18382   0.03714   0.17784   0.18272   0.28453
 kpt#  22, nband=  5, wtk=  0.00146, kpt= -0.0625 -0.2812  0.0000 (reduced coord)
  -0.19311   0.06393   0.17579   0.18214   0.29768
 kpt#  23, nband=  5, wtk=  0.00293, kpt= -0.0312 -0.2812  0.0313 (reduced coord)
  -0.18841   0.05045   0.17033   0.18681   0.29298
 kpt#  24, nband=  5, wtk=  0.00146, kpt= -0.0937 -0.2500  0.0000 (reduced coord)
  -0.20028   0.09130   0.17347   0.17921   0.30221
 kpt#  25, nband=  5, wtk=  0.00293, kpt= -0.0625 -0.2500  0.0313 (reduced coord)
  -0.19667   0.07763   0.16727   0.18621   0.30445
 kpt#  26, nband=  5, wtk=  0.00293, kpt= -0.0312 -0.2500  0.0625 (reduced coord)
  -0.19188   0.06407   0.15780   0.19132   0.30465
 kpt#  27, nband=  5, wtk=  0.00146, kpt= -0.1250 -0.2187  0.0000 (reduced coord)
  -0.20513   0.11680   0.17157   0.17529   0.28935
 kpt#  28, nband=  5, wtk=  0.00293, kpt= -0.0937 -0.2187  0.0313 (reduced coord)
  -0.20270   0.10417   0.16510   0.18324   0.29881
 kpt#  29, nband=  5, wtk=  0.00293, kpt= -0.0625 -0.2187  0.0625 (reduced coord)
  -0.19905   0.09062   0.15532   0.19080   0.30998
 kpt#  30, nband=  5, wtk=  0.00293, kpt= -0.0312 -0.2187  0.0938 (reduced coord)
  -0.19421   0.07701   0.14467   0.19455   0.31674
 kpt#  31, nband=  5, wtk=  0.00146, kpt= -0.1562 -0.1875  0.0000 (reduced coord)
  -0.20758   0.13496   0.17052   0.17124   0.27674
 kpt#  32, nband=  5, wtk=  0.00293, kpt= -0.1250 -0.1875  0.0313 (reduced coord)
  -0.20636   0.12596   0.16552   0.17817   0.28392
 kpt#  33, nband=  5, wtk=  0.00293, kpt= -0.0937 -0.1875  0.0625 (reduced coord)
  -0.20391   0.11353   0.15666   0.18667   0.29654
 kpt#  34, nband=  5, wtk=  0.00293, kpt= -0.0625 -0.1875  0.0938 (reduced coord)
  -0.20024   0.10009   0.14605   0.19329   0.31260
 kpt#  35, nband=  5, wtk=  0.00293, kpt= -0.0312 -0.1875  0.1250 (reduced coord)
  -0.19538   0.08644   0.13493   0.19621   0.32678
 kpt#  36, nband=  5, wtk=  0.00146, kpt= -0.0312 -0.3750  0.0000 (reduced coord)
  -0.16635   0.00102   0.17344   0.17608   0.27845
 kpt#  37, nband=  5, wtk=  0.00146, kpt= -0.0625 -0.3437  0.0000 (reduced coord)
  -0.17690   0.02497   0.17066   0.17334   0.29096
 kpt#  38, nband=  5, wtk=  0.00293, kpt= -0.0312 -0.3437  0.0313 (reduced coord)
  -0.17147   0.01281   0.16526   0.17921   0.28643
 kpt#  39, nband=  5, wtk=  0.00146, kpt= -0.0937 -0.3125  0.0000 (reduced coord)
  -0.18589   0.05088   0.16725   0.16888   0.30057
 kpt#  40, nband=  5, wtk=  0.00293, kpt= -0.0625 -0.3125  0.0313 (reduced coord)
  -0.18132   0.03787   0.16048   0.17750   0.29892
 kpt#  41, nband=  5, wtk=  0.00293, kpt= -0.0312 -0.3125  0.0625 (reduced coord)
  -0.17568   0.02546   0.15201   0.18247   0.29789
 kpt#  42, nband=  5, wtk=  0.00146, kpt= -0.1250 -0.2812  0.0000 (reduced coord)
  -0.19287   0.07703   0.16404   0.16461   0.29564
 kpt#  43, nband=  5, wtk=  0.00293, kpt= -0.0937 -0.2812  0.0313 (reduced coord)
  -0.18934   0.06404   0.15626   0.17424   0.30213
 kpt#  44, nband=  5, wtk=  0.00293, kpt= -0.0625 -0.2812  0.0625 (reduced coord)
  -0.18467   0.05105   0.14704   0.18161   0.30818
 kpt#  45, nband=  5, wtk=  0.00293, kpt= -0.0312 -0.2812  0.0938 (reduced coord)
  -0.17889   0.03849   0.13728   0.18490   0.30993
 kpt#  46, nband=  5, wtk=  0.00146, kpt= -0.1562 -0.2500  0.0000 (reduced coord)
  -0.19763   0.10043   0.16159   0.16161   0.28093
 kpt#  47, nband=  5, wtk=  0.00293, kpt= -0.1250 -0.2500  0.0313 (reduced coord)
  -0.19524   0.08899   0.15388   0.17043   0.29083
 kpt#  48, nband=  5, wtk=  0.00293, kpt= -0.0937 -0.2500  0.0625 (reduced coord)
  -0.19166   0.07633   0.14428   0.17860   0.30372
 kpt#  49, nband=  5, wtk=  0.00293, kpt= -0.0625 -0.2500  0.0938 (reduced coord)
  -0.18693   0.06346   0.13388   0.18439   0.31708
 kpt#  50, nband=  5, wtk=  0.00293, kpt= -0.0312 -0.2500  0.1250 (reduced coord)
  -0.18105   0.05080   0.12335   0.18648   0.31987
 prteigrs : prtvol=0 or 1, do not print more k-points.

 Total charge density [el/Bohr^3]
,     Maximum=    8.5973E-02  at reduced coord.    0.1000    0.1000    0.7000
,Next maximum=    8.5973E-02  at reduced coord.    0.1000    0.7000    0.1000
,     Minimum=    3.5336E-03  at reduced coord.    0.5000    0.5000    0.5000
,Next minimum=    3.5802E-03  at reduced coord.    0.7667    0.7333    0.7333
,  Integrated=    8.0000E+00

--------------------------------------------------------------------------------
 Components of total free energy (in Hartree) :

    Kinetic energy  =  3.02499897524258E+00
    Hartree energy  =  5.39016633939946E-01
    XC energy       = -3.53983324836382E+00
    Ewald energy    = -8.43664533146725E+00
    PspCore energy  =  8.60690571493222E-02
    Loc. psp. energy= -2.43865853369637E+00
    NL   psp  energy=  1.88805504708803E+00
    >>>>>>>>> Etotal= -8.87699740010756E+00

 Other information on the energy :
    Total energy(eV)= -2.41555383778549E+02 ; Band energy (Ha)=   2.2870934928E-01
--------------------------------------------------------------------------------

 Cartesian components of stress tensor (hartree/bohr^3)
  sigma(1 1)=  1.48477791E-05  sigma(3 2)=  0.00000000E+00
  sigma(2 2)=  1.48477791E-05  sigma(3 1)=  0.00000000E+00
  sigma(3 3)=  1.48477791E-05  sigma(2 1)=  0.00000000E+00

-Cartesian components of stress tensor (GPa)         [Pressure= -4.3684E-01 GPa]
- sigma(1 1)=  4.36836670E-01  sigma(3 2)=  0.00000000E+00
- sigma(2 2)=  4.36836670E-01  sigma(3 1)=  0.00000000E+00
- sigma(3 3)=  4.36836670E-01  sigma(2 1)=  0.00000000E+00

================================================================================
== DATASET  2 ==================================================================
-   nproc =    1

 mkfilename : getden/=0, take file _DEN from output of DATASET   1.

 Exchange-correlation functional for the present dataset will be:
  LDA: new Teter (4/93) with spin-polarized option - ixc=1
 Citation for XC functional:
  S. Goedecker, M. Teter, J. Huetter, PRB 54, 1703 (1996)
 
 Real(R)+Recip(G) space primitive vectors, cartesian coordinates (Bohr,Bohr^-1):
 R(1)=  0.0000000  5.1080000  5.1080000  G(1)= -0.0978857  0.0978857  0.0978857
 R(2)=  5.1080000  0.0000000  5.1080000  G(2)=  0.0978857 -0.0978857  0.0978857
 R(3)=  5.1080000  5.1080000  0.0000000  G(3)=  0.0978857  0.0978857 -0.0978857
 Unit cell volume ucvol=  2.6655244E+02 bohr^3
 Angles (23,13,12)=  6.00000000E+01  6.00000000E+01  6.00000000E+01 degrees

 getcut: wavevector=  0.0000  0.0000  0.0000  ngfft=  30  30  30
         ecut(hartree)=     20.000   => boxcut(ratio)=   2.06518
--------------------------------------------------------------------------------

P newkpt: treating     10 bands with npw=     579 for ikpt=   1 by node    0
P newkpt: treating     10 bands with npw=    1149 for ikpt=   2 by node    0
P newkpt: treating     10 bands with npw=    1149 for ikpt=   3 by node    0
P newkpt: treating     10 bands with npw=    1149 for ikpt=   4 by node    0
P newkpt: treating     10 bands with npw=    1149 for ikpt=   5 by node    0
P newkpt: treating     10 bands with npw=    1146 for ikpt=   6 by node    0
P newkpt: treating     10 bands with npw=    1152 for ikpt=   7 by node    0
P newkpt: treating     10 bands with npw=    1149 for ikpt=   8 by node    0
P newkpt: treating     10 bands with npw=    1143 for ikpt=   9 by node    0
P newkpt: treating     10 bands with npw=    1154 for ikpt=  10 by node    0
P newkpt: treating     10 bands with npw=     570 for ikpt=  11 by node    0
P newkpt: treating     10 bands with npw=    1147 for ikpt=  12 by node    0
P newkpt: treating     10 bands with npw=    1147 for ikpt=  13 by node    0
P newkpt: treating     10 bands with npw=    1155 for ikpt=  14 by node    0
P newkpt: treating     10 bands with npw=    1154 for ikpt=  15 by node    0
P newkpt: treating     10 bands with npw=    1134 for ikpt=  16 by node    0
P newkpt: treating     10 bands with npw=    1118 for ikpt=  17 by node    0
P newkpt: treating     10 bands with npw=    1130 for ikpt=  18 by node    0
P newkpt: treating     10 bands with npw=    1118 for ikpt=  19 by node    0
P newkpt: treating     10 bands with npw=    1142 for ikpt=  20 by node    0
P newkpt: treating     10 bands with npw=    1138 for ikpt=  21 by node    0
P newkpt: treating     10 bands with npw=    1138 for ikpt=  22 by node    0
P newkpt: treating     10 bands with npw=     569 for ikpt=  23 by node    0
P newkpt: treating     10 bands with npw=    1138 for ikpt=  24 by node    0
P newkpt: treating     10 bands with npw=    1138 for ikpt=  25 by node    0
P newkpt: treating     10 bands with npw=    1140 for ikpt=  26 by node    0
P newkpt: treating     10 bands with npw=    1136 for ikpt=  27 by node    0
P newkpt: treating     10 bands with npw=    1135 for ikpt=  28 by node    0
P newkpt: treating     10 bands with npw=    1141 for ikpt=  29 by node    0
P newkpt: treating     10 bands with npw=    1131 for ikpt=  30 by node    0
P newkpt: treating     10 bands with npw=    1129 for ikpt=  31 by node    0
P newkpt: treating     10 bands with npw=    1135 for ikpt=  32 by node    0
P newkpt: treating     10 bands with npw=    1135 for ikpt=  33 by node    0
P newkpt: treating     10 bands with npw=    1141 for ikpt=  34 by node    0
P newkpt: treating     10 bands with npw=    1141 for ikpt=  35 by node    0
P newkpt: treating     10 bands with npw=    1153 for ikpt=  36 by node    0
P newkpt: treating     10 bands with npw=    1159 for ikpt=  37 by node    0
P newkpt: treating     10 bands with npw=    1147 for ikpt=  38 by node    0
P newkpt: treating     10 bands with npw=    1145 for ikpt=  39 by node    0
P newkpt: treating     10 bands with npw=    1139 for ikpt=  40 by node    0
 

================================================================================
 prteigrs : about to open file out_tbase3_DS2_EIG
 Non-SCF case, kpt    1 (  0.50000  0.00000  0.00000), residuals and eigenvalues=
  1.04E-13  2.71E-13  4.39E-13  7.91E-13  1.11E-13  5.47E-13  3.68E-13  1.62E-13
  1.27E-06  1.30E-06
 -1.3970E-01 -4.2941E-02  1.7230E-01  1.7230E-01  2.6918E-01  3.3770E-01
  3.3770E-01  4.9362E-01  6.0536E-01  6.0536E-01
  prteigrs : nnsclo,ikpt=   50    1 max resid (incl. the buffer)=  1.30358E-06
 Non-SCF case, kpt    2 (  0.45000  0.00000  0.00000), residuals and eigenvalues=
  8.44E-13  5.45E-13  2.61E-13  9.99E-14  3.95E-13  7.09E-13  1.40E-13  3.45E-13
  3.74E-09  4.68E-07
 -1.4480E-01 -3.5556E-02  1.7296E-01  1.7296E-01  2.6994E-01  3.3848E-01
  3.3848E-01  4.9485E-01  5.7945E-01  5.7945E-01
  prteigrs : nnsclo,ikpt=   50    2 max resid (incl. the buffer)=  4.67643E-07
 Non-SCF case, kpt    3 (  0.40000  0.00000  0.00000), residuals and eigenvalues=
  2.04E-13  2.43E-13  1.58E-13  3.01E-13  4.46E-13  7.31E-13  5.10E-13  9.67E-13
  8.45E-12  2.03E-10
 -1.5678E-01 -1.6733E-02  1.7494E-01  1.7494E-01  2.7222E-01  3.4060E-01
  3.4060E-01  4.9808E-01  5.4697E-01  5.4697E-01
  prteigrs : nnsclo,ikpt=   50    3 max resid (incl. the buffer)=  2.03349E-10
 Non-SCF case, kpt    4 (  0.35000  0.00000  0.00000), residuals and eigenvalues=
  2.18E-13  6.16E-13  1.84E-13  3.67E-13  4.34E-13  2.83E-13  1.96E-13  9.85E-13
  8.25E-13  1.11E-11
 -1.7094E-01  8.7527E-03  1.7823E-01  1.7823E-01  2.7598E-01  3.4330E-01
  3.4330E-01  5.0072E-01  5.1833E-01  5.1833E-01
  prteigrs : nnsclo,ikpt=   50    4 max resid (incl. the buffer)=  1.10583E-11
 Non-SCF case, kpt    5 (  0.30000  0.00000  0.00000), residuals and eigenvalues=
  7.09E-13  5.50E-13  9.58E-13  2.29E-13  3.49E-13  2.90E-13  8.67E-13  6.79E-13
  8.95E-13  6.26E-12
 -1.8479E-01  3.8284E-02  1.8279E-01  1.8279E-01  2.8114E-01  3.4520E-01
  3.4520E-01  4.9155E-01  4.9561E-01  4.9561E-01
  prteigrs : nnsclo,ikpt=   50    5 max resid (incl. the buffer)=  6.25760E-12
 Non-SCF case, kpt    6 (  0.25000  0.00000  0.00000), residuals and eigenvalues=
  2.44E-13  4.70E-13  5.90E-13  4.83E-13  2.50E-13  2.04E-13  1.50E-13  5.04E-13
  4.59E-13  1.15E-12
 -1.9724E-01  7.0546E-02  1.8851E-01  1.8851E-01  2.8751E-01  3.4432E-01
  3.4432E-01  4.6523E-01  4.8091E-01  4.8091E-01
  prteigrs : nnsclo,ikpt=   50    6 max resid (incl. the buffer)=  1.15335E-12
 Non-SCF case, kpt    7 (  0.20000  0.00000  0.00000), residuals and eigenvalues=
  1.77E-13  4.90E-13  3.28E-13  2.13E-13  7.41E-13  2.16E-13  1.24E-13  3.32E-13
  3.88E-13  2.95E-12
 -2.0778E-01  1.0465E-01  1.9520E-01  1.9520E-01  2.9477E-01  3.3918E-01
  3.3918E-01  4.3369E-01  4.7566E-01  4.7566E-01
  prteigrs : nnsclo,ikpt=   50    7 max resid (incl. the buffer)=  2.95347E-12
 Non-SCF case, kpt    8 (  0.15000  0.00000  0.00000), residuals and eigenvalues=
  6.43E-13  2.63E-13  7.49E-13  6.86E-13  2.49E-13  1.95E-13  3.54E-13  2.06E-13
  5.60E-10  1.20E-09
 -2.1615E-01  1.3964E-01  2.0242E-01  2.0242E-01  3.0226E-01  3.3035E-01
  3.3035E-01  4.0104E-01  4.7907E-01  4.7907E-01
  prteigrs : nnsclo,ikpt=   50    8 max resid (incl. the buffer)=  1.19831E-09
 Non-SCF case, kpt    9 (  0.10000  0.00000  0.00000), residuals and eigenvalues=
  5.85E-13  8.61E-13  4.82E-13  2.42E-13  3.65E-13  1.74E-13  2.69E-13  6.38E-13
  1.65E-09  2.23E-06
 -2.2220E-01  1.7389E-01  2.0939E-01  2.0939E-01  3.0871E-01  3.2042E-01
  3.2042E-01  3.6929E-01  4.8793E-01  4.8794E-01
  prteigrs : nnsclo,ikpt=   50    9 max resid (incl. the buffer)=  2.23105E-06
 Non-SCF case, kpt   10 (  0.05000  0.00000  0.00000), residuals and eigenvalues=
  2.88E-13  1.42E-13  9.90E-13  2.26E-13  1.92E-13  1.28E-13  2.94E-13  8.73E-13
  9.53E-12  5.49E-05
 -2.2586E-01  2.0334E-01  2.1476E-01  2.1476E-01  3.1140E-01  3.1256E-01
  3.1256E-01  3.4359E-01  4.9751E-01  4.9756E-01
  prteigrs : nnsclo,ikpt=   50   10 max resid (incl. the buffer)=  5.49428E-05
 Non-SCF case, kpt   11 (  0.00000  0.00000  0.00000), residuals and eigenvalues=
  3.00E-13  4.78E-13  7.54E-13  6.82E-13  3.23E-13  8.20E-13  4.13E-13  5.31E-13
  3.24E-05  4.56E-13
 -2.2708E-01  2.1684E-01  2.1684E-01  2.1684E-01  3.0953E-01  3.0953E-01
  3.0953E-01  3.3433E-01  4.9790E-01  5.0185E-01
  prteigrs : nnsclo,ikpt=   50   11 max resid (incl. the buffer)=  3.23669E-05
 Non-SCF case, kpt   12 (  0.00000  0.04167  0.04167), residuals and eigenvalues=
  3.36E-13  1.15E-13  1.90E-13  3.24E-13  5.26E-13  3.02E-13  2.67E-13  5.46E-13
  8.63E-06  5.96E-08
 -2.2595E-01  2.0933E-01  2.1211E-01  2.1211E-01  3.0662E-01  3.1563E-01
  3.1563E-01  3.4159E-01  4.9269E-01  5.0301E-01
  prteigrs : nnsclo,ikpt=   50   12 max resid (incl. the buffer)=  8.63407E-06
 Non-SCF case, kpt   13 (  0.00000  0.08333  0.08333), residuals and eigenvalues=
  4.73E-13  9.23E-14  4.48E-13  1.07E-13  1.53E-13  9.96E-14  9.70E-13  4.75E-13
  2.63E-09  4.25E-07
 -2.2255E-01  1.9086E-01  2.0064E-01  2.0064E-01  2.9880E-01  3.3115E-01
  3.3115E-01  3.5824E-01  4.7212E-01  5.0683E-01
  prteigrs : nnsclo,ikpt=   50   13 max resid (incl. the buffer)=  4.25111E-07
 Non-SCF case, kpt   14 (  0.00000  0.12500  0.12500), residuals and eigenvalues=
  3.85E-13  5.93E-13  1.92E-13  3.35E-13  2.60E-13  3.76E-13  6.86E-13  1.94E-13
  1.44E-10  3.55E-06
 -2.1690E-01  1.6715E-01  1.8655E-01  1.8655E-01  2.8806E-01  3.5195E-01
  3.5195E-01  3.7317E-01  4.5405E-01  5.1305E-01
  prteigrs : nnsclo,ikpt=   50   14 max resid (incl. the buffer)=  3.55152E-06
 Non-SCF case, kpt   15 (  0.00000  0.16667  0.16667), residuals and eigenvalues=
  5.75E-13  2.43E-13  4.85E-13  1.59E-13  1.20E-13  1.21E-13  3.50E-13  2.06E-13
  2.14E-12  3.53E-07
 -2.0903E-01  1.4117E-01  1.7214E-01  1.7214E-01  2.7628E-01  3.7068E-01
  3.7563E-01  3.7563E-01  4.5574E-01  5.2175E-01
  prteigrs : nnsclo,ikpt=   50   15 max resid (incl. the buffer)=  3.52769E-07
 Non-SCF case, kpt   16 (  0.00000  0.20833  0.20833), residuals and eigenvalues=
  7.30E-13  6.34E-14  7.35E-13  6.02E-13  6.36E-14  4.54E-14  3.52E-13  2.94E-13
  9.64E-13  3.18E-11
 -1.9896E-01  1.1415E-01  1.5851E-01  1.5851E-01  2.6477E-01  3.5136E-01
  4.0102E-01  4.0102E-01  4.7735E-01  5.3292E-01
  prteigrs : nnsclo,ikpt=   50   16 max resid (incl. the buffer)=  3.18414E-11
 Non-SCF case, kpt   17 (  0.00000  0.25000  0.25000), residuals and eigenvalues=
  4.00E-13  1.08E-13  1.64E-13  4.48E-13  6.80E-13  1.52E-13  6.87E-13  1.70E-13
  1.23E-11  2.67E-10
 -1.8674E-01  8.6656E-02  1.4620E-01  1.4620E-01  2.5439E-01  3.2787E-01
  4.2751E-01  4.2751E-01  5.0653E-01  5.4656E-01
  prteigrs : nnsclo,ikpt=   50   17 max resid (incl. the buffer)=  2.66930E-10
 Non-SCF case, kpt   18 (  0.00000  0.29167  0.29167), residuals and eigenvalues=
  6.64E-13  4.09E-13  9.29E-13  2.45E-13  7.22E-13  1.37E-13  1.94E-13  5.49E-13
  6.15E-11  9.25E-10
 -1.7243E-01  5.9011E-02  1.3549E-01  1.3549E-01  2.4570E-01  3.0535E-01
  4.5478E-01  4.5478E-01  5.3810E-01  5.6266E-01
  prteigrs : nnsclo,ikpt=   50   18 max resid (incl. the buffer)=  9.24908E-10
 Non-SCF case, kpt   19 (  0.00000  0.33333  0.33333), residuals and eigenvalues=
  1.47E-13  4.63E-13  5.00E-13  4.18E-13  3.90E-13  9.75E-13  7.61E-13  8.01E-13
  1.31E-12  9.28E-12
 -1.5609E-01  3.1466E-02  1.2657E-01  1.2657E-01  2.3907E-01  2.8541E-01
  4.8265E-01  4.8265E-01  5.7017E-01  5.8120E-01
  prteigrs : nnsclo,ikpt=   50   19 max resid (incl. the buffer)=  9.28239E-12
 Non-SCF case, kpt   20 (  0.00000  0.37500  0.37500), residuals and eigenvalues=
  2.19E-13  1.81E-13  5.41E-13  4.26E-13  3.24E-13  4.09E-13  3.83E-13  5.29E-13
  7.50E-10  2.63E-09
 -1.3783E-01  4.2673E-03  1.1955E-01  1.1955E-01  2.3478E-01  2.6862E-01
  5.1101E-01  5.1101E-01  6.0179E-01  6.0217E-01
  prteigrs : nnsclo,ikpt=   50   20 max resid (incl. the buffer)=  2.62773E-09
 Non-SCF case, kpt   21 (  0.00000  0.41667  0.41667), residuals and eigenvalues=
  6.59E-13  6.71E-13  2.74E-13  1.15E-13  6.99E-13  2.50E-13  2.11E-13  7.61E-13
  3.74E-08  4.85E-08
 -1.1774E-01 -2.2325E-02  1.1449E-01  1.1449E-01  2.3304E-01  2.5514E-01
  5.3964E-01  5.3964E-01  6.2555E-01  6.3229E-01
  prteigrs : nnsclo,ikpt=   50   21 max resid (incl. the buffer)=  4.85283E-08
 Non-SCF case, kpt   22 (  0.00000  0.45833  0.45833), residuals and eigenvalues=
  5.64E-13  8.06E-13  3.45E-13  2.52E-13  1.82E-13  5.17E-13  6.95E-13  6.97E-13
  6.53E-08  8.00E-06
 -9.5969E-02 -4.8055E-02  1.1144E-01  1.1144E-01  2.3405E-01  2.4495E-01
  5.6755E-01  5.6755E-01  6.3871E-01  6.3877E-01
  prteigrs : nnsclo,ikpt=   50   22 max resid (incl. the buffer)=  8.00385E-06
 Non-SCF case, kpt   23 (  0.00000  0.50000  0.50000), residuals and eigenvalues=
  6.09E-13  1.95E-13  3.48E-13  1.11E-13  3.83E-13  1.69E-13  9.27E-13  6.43E-13
  1.15E-11  6.25E-11
 -7.2677E-02 -7.2677E-02  1.1042E-01  1.1042E-01  2.3797E-01  2.3797E-01
  5.8531E-01  5.8531E-01  6.2058E-01  6.2058E-01
  prteigrs : nnsclo,ikpt=   50   23 max resid (incl. the buffer)=  6.25454E-11
 Non-SCF case, kpt   24 (  0.05882  0.52941  0.52941), residuals and eigenvalues=
  4.49E-13  8.17E-14  6.83E-13  2.24E-13  5.95E-13  3.10E-13  5.69E-13  6.71E-13
  4.95E-12  4.53E-11
 -7.3126E-02 -7.1465E-02  1.0298E-01  1.1132E-01  2.3902E-01  2.4908E-01
  5.7454E-01  5.7865E-01  6.0442E-01  6.0868E-01
  prteigrs : nnsclo,ikpt=   50   24 max resid (incl. the buffer)=  4.52628E-11
 Non-SCF case, kpt   25 (  0.11765  0.55882  0.55882), residuals and eigenvalues=
  5.89E-13  2.78E-13  3.27E-13  7.59E-13  3.10E-13  1.35E-13  4.13E-13  6.73E-13
  8.87E-13  1.58E-12
 -7.4778E-02 -6.7831E-02  8.6623E-02  1.1403E-01  2.4215E-01  2.7671E-01
  5.5106E-01  5.6243E-01  5.7513E-01  5.8539E-01
  prteigrs : nnsclo,ikpt=   50   25 max resid (incl. the buffer)=  1.57679E-12
 Non-SCF case, kpt   26 (  0.17647  0.58824  0.58824), residuals and eigenvalues=
  8.83E-13  1.11E-13  1.61E-13  3.38E-13  3.63E-13  4.76E-13  7.98E-13  5.48E-13
  2.43E-13  7.84E-13
 -7.8492E-02 -6.1784E-02  6.9769E-02  1.1848E-01  2.4731E-01  3.1321E-01
  5.2403E-01  5.4203E-01  5.4466E-01  5.6011E-01
 Non-SCF case, kpt   27 (  0.23529  0.61765  0.61765), residuals and eigenvalues=
  3.71E-13  7.29E-13  1.95E-13  1.67E-13  3.42E-13  4.62E-13  9.58E-14  4.77E-13
  4.13E-13  5.44E-13
 -8.5379E-02 -5.3337E-02  5.7230E-02  1.2459E-01  2.5440E-01  3.5465E-01
  4.9675E-01  5.1545E-01  5.2044E-01  5.3543E-01
 Non-SCF case, kpt   28 (  0.29412  0.64706  0.64706), residuals and eigenvalues=
  2.66E-13  1.42E-13  1.68E-13  2.75E-13  8.74E-13  4.29E-13  9.41E-13  7.23E-13
  8.23E-14  1.30E-13
 -9.6059E-02 -4.2507E-02  5.1184E-02  1.3222E-01  2.6329E-01  3.9874E-01
  4.7042E-01  4.8866E-01  4.9913E-01  5.1237E-01
 Non-SCF case, kpt   29 (  0.35294  0.67647  0.67647), residuals and eigenvalues=
  1.81E-13  5.24E-13  4.87E-13  1.78E-13  1.05E-13  3.39E-13  2.86E-13  2.32E-13
  9.28E-13  4.28E-13
 -1.1003E-01 -2.9320E-02  5.1830E-02  1.4118E-01  2.7371E-01  4.3847E-01
  4.4558E-01  4.7044E-01  4.7898E-01  4.9158E-01
 Non-SCF case, kpt   30 (  0.41176  0.70588  0.70588), residuals and eigenvalues=
  1.04E-13  1.01E-13  1.99E-13  7.00E-13  1.56E-13  4.43E-13  2.52E-13  2.43E-13
  3.62E-13  1.60E-13
 -1.2599E-01 -1.3810E-02  5.8184E-02  1.5120E-01  2.8529E-01  4.2252E-01
  4.3264E-01  4.6069E-01  4.7356E-01  5.0093E-01
 Non-SCF case, kpt   31 (  0.47059  0.73529  0.73529), residuals and eigenvalues=
  2.21E-13  7.17E-13  3.64E-13  6.92E-13  4.54E-13  9.64E-13  9.50E-13  1.67E-13
  7.80E-13  1.47E-10
 -1.4258E-01  3.9816E-03  6.9022E-02  1.6190E-01  2.9739E-01  4.0141E-01
  4.1252E-01  4.4493E-01  4.5882E-01  5.4666E-01
  prteigrs : nnsclo,ikpt=   50   31 max resid (incl. the buffer)=  1.47211E-10
 Non-SCF case, kpt   32 (  0.52941  0.76471  0.76471), residuals and eigenvalues=
  1.65E-13  3.79E-13  1.93E-13  3.69E-13  1.97E-13  4.08E-13  2.63E-13  9.03E-13
  9.10E-13  3.17E-07
 -1.5877E-01  2.3996E-02  8.3331E-02  1.7282E-01  3.0900E-01  3.8235E-01
  3.9330E-01  4.3256E-01  4.4789E-01  5.8617E-01
  prteigrs : nnsclo,ikpt=   50   32 max resid (incl. the buffer)=  3.16510E-07
 Non-SCF case, kpt   33 (  0.58824  0.79412  0.79412), residuals and eigenvalues=
  1.07E-13  8.66E-13  1.13E-13  9.16E-13  1.44E-13  1.69E-13  4.98E-13  4.68E-13
  4.50E-13  4.62E-05
 -1.7389E-01  4.6158E-02  1.0033E-01  1.8339E-01  3.1864E-01  3.6542E-01
  3.7589E-01  4.2453E-01  4.4131E-01  6.0492E-01
  prteigrs : nnsclo,ikpt=   50   33 max resid (incl. the buffer)=  4.61602E-05
 Non-SCF case, kpt   34 (  0.64706  0.82353  0.82353), residuals and eigenvalues=
  5.05E-13  1.98E-13  1.60E-13  1.49E-13  1.22E-13  9.03E-13  7.99E-13  2.57E-13
  2.20E-12  5.86E-06
 -1.8751E-01  7.0355E-02  1.1936E-01  1.9300E-01  3.2472E-01  3.5067E-01
  3.6043E-01  4.2123E-01  4.3960E-01  5.7289E-01
  prteigrs : nnsclo,ikpt=   50   34 max resid (incl. the buffer)=  5.86387E-06
 Non-SCF case, kpt   35 (  0.70588  0.85294  0.85294), residuals and eigenvalues=
  2.83E-13  2.12E-13  1.27E-13  5.59E-13  6.91E-13  8.58E-13  4.88E-14  8.14E-14
  1.74E-12  2.78E-08
 -1.9934E-01  9.6418E-02  1.3975E-01  2.0112E-01  3.2666E-01  3.3815E-01
  3.4692E-01  4.2027E-01  4.4311E-01  5.3292E-01
  prteigrs : nnsclo,ikpt=   50   35 max resid (incl. the buffer)=  2.77642E-08
 Non-SCF case, kpt   36 (  0.76471  0.88235  0.88235), residuals and eigenvalues=
  2.67E-13  5.15E-13  4.32E-13  7.53E-14  2.65E-13  9.47E-13  2.68E-13  3.15E-13
  6.87E-13  1.08E-08
 -2.0920E-01  1.2406E-01  1.6068E-01  2.0744E-01  3.2546E-01  3.2787E-01
  3.3528E-01  4.1389E-01  4.5176E-01  5.0508E-01
  prteigrs : nnsclo,ikpt=   50   36 max resid (incl. the buffer)=  1.08469E-08
 Non-SCF case, kpt   37 (  0.82353  0.91176  0.91176), residuals and eigenvalues=
  4.93E-13  1.07E-13  1.38E-13  2.83E-13  3.20E-13  1.23E-13  3.77E-13  6.60E-13
  3.09E-10  3.84E-07
 -2.1697E-01  1.5271E-01  1.8101E-01  2.1193E-01  3.1986E-01  3.2265E-01
  3.2543E-01  3.9396E-01  4.6486E-01  4.9530E-01
  prteigrs : nnsclo,ikpt=   50   37 max resid (incl. the buffer)=  3.84023E-07
 Non-SCF case, kpt   38 (  0.88235  0.94118  0.94118), residuals and eigenvalues=
  5.02E-13  1.85E-13  2.74E-13  2.69E-13  4.03E-13  1.59E-13  4.09E-13  7.51E-13
  2.43E-06  4.75E-05
 -2.2257E-01  1.8109E-01  1.9897E-01  2.1480E-01  3.1412E-01  3.1740E-01
  3.1908E-01  3.6613E-01  4.8065E-01  4.9688E-01
  prteigrs : nnsclo,ikpt=   50   38 max resid (incl. the buffer)=  4.74789E-05
 Non-SCF case, kpt   39 (  0.94118  0.97059  0.97059), residuals and eigenvalues=
  5.30E-13  1.66E-13  2.44E-13  2.49E-13  4.01E-13  6.12E-13  3.31E-13  8.84E-13
  8.59E-06  8.24E-05
 -2.2595E-01  2.0566E-01  2.1197E-01  2.1636E-01  3.1068E-01  3.1170E-01
  3.1403E-01  3.4263E-01  4.9531E-01  5.0134E-01
  prteigrs : nnsclo,ikpt=   50   39 max resid (incl. the buffer)=  8.23933E-05
 Non-SCF case, kpt   40 (  1.00000  1.00000  1.00000), residuals and eigenvalues=
  2.80E-13  1.83E-13  1.61E-13  9.30E-13  1.54E-13  6.38E-13  7.86E-14  1.78E-13
  5.74E-05  7.26E-12
 -2.2708E-01  2.1684E-01  2.1684E-01  2.1684E-01  3.0953E-01  3.0953E-01
  3.0953E-01  3.3433E-01  4.9802E-01  5.0185E-01
  prteigrs : nnsclo,ikpt=   50   40 max resid (incl. the buffer)=  5.73713E-05
================================================================================

 ----iterations are completed or convergence reached----

 Mean square residual over all n,k,spin=   9.1201E-07; max=  5.4943E-05
   0.5000  0.0000  0.0000    1  1.30358E-06 kpt; spin; max resid(k); each band:
  1.04E-13 2.71E-13 4.39E-13 7.91E-13 1.11E-13 5.47E-13 3.68E-13 1.62E-13
  1.27E-06 1.30E-06
   0.4500  0.0000  0.0000    1  4.67643E-07 kpt; spin; max resid(k); each band:
  8.44E-13 5.45E-13 2.61E-13 9.99E-14 3.95E-13 7.09E-13 1.40E-13 3.45E-13
  3.74E-09 4.68E-07
   0.4000  0.0000  0.0000    1  2.03349E-10 kpt; spin; max resid(k); each band:
  2.04E-13 2.43E-13 1.58E-13 3.01E-13 4.46E-13 7.31E-13 5.10E-13 9.67E-13
  8.45E-12 2.03E-10
   0.3500  0.0000  0.0000    1  1.10583E-11 kpt; spin; max resid(k); each band:
  2.18E-13 6.16E-13 1.84E-13 3.67E-13 4.34E-13 2.83E-13 1.96E-13 9.85E-13
  8.25E-13 1.11E-11
   0.3000  0.0000  0.0000    1  6.25760E-12 kpt; spin; max resid(k); each band:
  7.09E-13 5.50E-13 9.58E-13 2.29E-13 3.49E-13 2.90E-13 8.67E-13 6.79E-13
  8.95E-13 6.26E-12
   0.2500  0.0000  0.0000    1  1.15335E-12 kpt; spin; max resid(k); each band:
  2.44E-13 4.70E-13 5.90E-13 4.83E-13 2.50E-13 2.04E-13 1.50E-13 5.04E-13
  4.59E-13 1.15E-12
   0.2000  0.0000  0.0000    1  2.95347E-12 kpt; spin; max resid(k); each band:
  1.77E-13 4.90E-13 3.28E-13 2.13E-13 7.41E-13 2.16E-13 1.24E-13 3.32E-13
  3.88E-13 2.95E-12
   0.1500  0.0000  0.0000    1  1.19831E-09 kpt; spin; max resid(k); each band:
  6.43E-13 2.63E-13 7.49E-13 6.86E-13 2.49E-13 1.95E-13 3.54E-13 2.06E-13
  5.60E-10 1.20E-09
   0.1000  0.0000  0.0000    1  2.23105E-06 kpt; spin; max resid(k); each band:
  5.85E-13 8.61E-13 4.82E-13 2.42E-13 3.65E-13 1.74E-13 2.69E-13 6.38E-13
  1.65E-09 2.23E-06
   0.0500  0.0000  0.0000    1  5.49428E-05 kpt; spin; max resid(k); each band:
  2.88E-13 1.42E-13 9.90E-13 2.26E-13 1.92E-13 1.28E-13 2.94E-13 8.73E-13
  9.53E-12 5.49E-05
   0.0000  0.0000  0.0000    1  3.23669E-05 kpt; spin; max resid(k); each band:
  3.00E-13 4.78E-13 7.54E-13 6.82E-13 3.23E-13 8.20E-13 4.13E-13 5.31E-13
  3.24E-05 4.56E-13
   0.0000  0.0417  0.0417    1  8.63407E-06 kpt; spin; max resid(k); each band:
  3.36E-13 1.15E-13 1.90E-13 3.24E-13 5.26E-13 3.02E-13 2.67E-13 5.46E-13
  8.63E-06 5.96E-08
   0.0000  0.0833  0.0833    1  4.25111E-07 kpt; spin; max resid(k); each band:
  4.73E-13 9.23E-14 4.48E-13 1.07E-13 1.53E-13 9.96E-14 9.70E-13 4.75E-13
  2.63E-09 4.25E-07
   0.0000  0.1250  0.1250    1  3.55152E-06 kpt; spin; max resid(k); each band:
  3.85E-13 5.93E-13 1.92E-13 3.35E-13 2.60E-13 3.76E-13 6.86E-13 1.94E-13
  1.44E-10 3.55E-06
   0.0000  0.1667  0.1667    1  3.52769E-07 kpt; spin; max resid(k); each band:
  5.75E-13 2.43E-13 4.85E-13 1.59E-13 1.20E-13 1.21E-13 3.50E-13 2.06E-13
  2.14E-12 3.53E-07
   0.0000  0.2083  0.2083    1  3.18414E-11 kpt; spin; max resid(k); each band:
  7.30E-13 6.34E-14 7.35E-13 6.02E-13 6.36E-14 4.54E-14 3.52E-13 2.94E-13
  9.64E-13 3.18E-11
   0.0000  0.2500  0.2500    1  2.66930E-10 kpt; spin; max resid(k); each band:
  4.00E-13 1.08E-13 1.64E-13 4.48E-13 6.80E-13 1.52E-13 6.87E-13 1.70E-13
  1.23E-11 2.67E-10
   0.0000  0.2917  0.2917    1  9.24908E-10 kpt; spin; max resid(k); each band:
  6.64E-13 4.09E-13 9.29E-13 2.45E-13 7.22E-13 1.37E-13 1.94E-13 5.49E-13
  6.15E-11 9.25E-10
   0.0000  0.3333  0.3333    1  9.28239E-12 kpt; spin; max resid(k); each band:
  1.47E-13 4.63E-13 5.00E-13 4.18E-13 3.90E-13 9.75E-13 7.61E-13 8.01E-13
  1.31E-12 9.28E-12
   0.0000  0.3750  0.3750    1  2.62773E-09 kpt; spin; max resid(k); each band:
  2.19E-13 1.81E-13 5.41E-13 4.26E-13 3.24E-13 4.09E-13 3.83E-13 5.29E-13
  7.50E-10 2.63E-09
   0.0000  0.4167  0.4167    1  4.85283E-08 kpt; spin; max resid(k); each band:
  6.59E-13 6.71E-13 2.74E-13 1.15E-13 6.99E-13 2.50E-13 2.11E-13 7.61E-13
  3.74E-08 4.85E-08
   0.0000  0.4583  0.4583    1  8.00385E-06 kpt; spin; max resid(k); each band:
  5.64E-13 8.06E-13 3.45E-13 2.52E-13 1.82E-13 5.17E-13 6.95E-13 6.97E-13
  6.53E-08 8.00E-06
   0.0000  0.5000  0.5000    1  6.25454E-11 kpt; spin; max resid(k); each band:
  6.09E-13 1.95E-13 3.48E-13 1.11E-13 3.83E-13 1.69E-13 9.27E-13 6.43E-13
  1.15E-11 6.25E-11
   0.0588  0.5294  0.5294    1  4.52628E-11 kpt; spin; max resid(k); each band:
  4.49E-13 8.17E-14 6.83E-13 2.24E-13 5.95E-13 3.10E-13 5.69E-13 6.71E-13
  4.95E-12 4.53E-11
   0.1176  0.5588  0.5588    1  1.57679E-12 kpt; spin; max resid(k); each band:
  5.89E-13 2.78E-13 3.27E-13 7.59E-13 3.10E-13 1.35E-13 4.13E-13 6.73E-13
  8.87E-13 1.58E-12
   0.1765  0.5882  0.5882    1  8.82568E-13 kpt; spin; max resid(k); each band:
  8.83E-13 1.11E-13 1.61E-13 3.38E-13 3.63E-13 4.76E-13 7.98E-13 5.48E-13
  2.43E-13 7.84E-13
   0.2353  0.6176  0.6176    1  7.28704E-13 kpt; spin; max resid(k); each band:
  3.71E-13 7.29E-13 1.95E-13 1.67E-13 3.42E-13 4.62E-13 9.58E-14 4.77E-13
  4.13E-13 5.44E-13
   0.2941  0.6471  0.6471    1  9.40949E-13 kpt; spin; max resid(k); each band:
  2.66E-13 1.42E-13 1.68E-13 2.75E-13 8.74E-13 4.29E-13 9.41E-13 7.23E-13
  8.23E-14 1.30E-13
   0.3529  0.6765  0.6765    1  9.27554E-13 kpt; spin; max resid(k); each band:
  1.81E-13 5.24E-13 4.87E-13 1.78E-13 1.05E-13 3.39E-13 2.86E-13 2.32E-13
  9.28E-13 4.28E-13
   0.4118  0.7059  0.7059    1  6.99663E-13 kpt; spin; max resid(k); each band:
  1.04E-13 1.01E-13 1.99E-13 7.00E-13 1.56E-13 4.43E-13 2.52E-13 2.43E-13
  3.62E-13 1.60E-13
   0.4706  0.7353  0.7353    1  1.47211E-10 kpt; spin; max resid(k); each band:
  2.21E-13 7.17E-13 3.64E-13 6.92E-13 4.54E-13 9.64E-13 9.50E-13 1.67E-13
  7.80E-13 1.47E-10
   0.5294  0.7647  0.7647    1  3.16510E-07 kpt; spin; max resid(k); each band:
  1.65E-13 3.79E-13 1.93E-13 3.69E-13 1.97E-13 4.08E-13 2.63E-13 9.03E-13
  9.10E-13 3.17E-07
   0.5882  0.7941  0.7941    1  4.61602E-05 kpt; spin; max resid(k); each band:
  1.07E-13 8.66E-13 1.13E-13 9.16E-13 1.44E-13 1.69E-13 4.98E-13 4.68E-13
  4.50E-13 4.62E-05
   0.6471  0.8235  0.8235    1  5.86387E-06 kpt; spin; max resid(k); each band:
  5.05E-13 1.98E-13 1.60E-13 1.49E-13 1.22E-13 9.03E-13 7.99E-13 2.57E-13
  2.20E-12 5.86E-06
   0.7059  0.8529  0.8529    1  2.77642E-08 kpt; spin; max resid(k); each band:
  2.83E-13 2.12E-13 1.27E-13 5.59E-13 6.91E-13 8.58E-13 4.88E-14 8.14E-14
  1.74E-12 2.78E-08
   0.7647  0.8824  0.8824    1  1.08469E-08 kpt; spin; max resid(k); each band:
  2.67E-13 5.15E-13 4.32E-13 7.53E-14 2.65E-13 9.47E-13 2.68E-13 3.15E-13
  6.87E-13 1.08E-08
   0.8235  0.9118  0.9118    1  3.84023E-07 kpt; spin; max resid(k); each band:
  4.93E-13 1.07E-13 1.38E-13 2.83E-13 3.20E-13 1.23E-13 3.77E-13 6.60E-13
  3.09E-10 3.84E-07
   0.8824  0.9412  0.9412    1  4.74789E-05 kpt; spin; max resid(k); each band:
  5.02E-13 1.85E-13 2.74E-13 2.69E-13 4.03E-13 1.59E-13 4.09E-13 7.51E-13
  2.43E-06 4.75E-05
   0.9412  0.9706  0.9706    1  8.23933E-05 kpt; spin; max resid(k); each band:
  5.30E-13 1.66E-13 2.44E-13 2.49E-13 4.01E-13 6.12E-13 3.31E-13 8.84E-13
  8.59E-06 8.24E-05
   1.0000  1.0000  1.0000    1  5.73713E-05 kpt; spin; max resid(k); each band:
  2.80E-13 1.83E-13 1.61E-13 9.30E-13 1.54E-13 6.38E-13 7.86E-14 1.78E-13
  5.74E-05 7.26E-12
 reduced coordinates (array xred) for    2 atoms
       0.000000000000      0.000000000000      0.000000000000
       0.250000000000      0.250000000000      0.250000000000
 
 cartesian coordinates (angstrom) at end:
    1      0.00000000000000     0.00000000000000     0.00000000000000
    2      1.35151859073886     1.35151859073886     1.35151859073886
 length scales= 10.216000000000 10.216000000000 10.216000000000 bohr
              =  5.406074362955  5.406074362955  5.406074362955 angstroms
 prteigrs : about to open file out_tbase3_DS2_EIG
 Eigenvalues (   eV  ) for nkpt=  40  k points:
 kpt#   1, nband= 10, wtk=  1.00000, kpt=  0.5000  0.0000  0.0000 (reduced coord)
  -3.80151  -1.16849   4.68852   4.68852   7.32470   9.18941   9.18941  13.43207
  16.47274  16.47278
 kpt#   2, nband= 10, wtk=  1.00000, kpt=  0.4500  0.0000  0.0000 (reduced coord)
  -3.94021  -0.96753   4.70650   4.70650   7.34549   9.21062   9.21062  13.46543
  15.76766  15.76767
 kpt#   3, nband= 10, wtk=  1.00000, kpt=  0.4000  0.0000  0.0000 (reduced coord)
  -4.26621  -0.45534   4.76039   4.76039   7.40757   9.26811   9.26811  13.55337
  14.88379  14.88379
 kpt#   4, nband= 10, wtk=  1.00000, kpt=  0.3500  0.0000  0.0000 (reduced coord)
  -4.65151   0.23817   4.84986   4.84986   7.50991   9.34170   9.34170  13.62519
  14.10457  14.10457
 kpt#   5, nband= 10, wtk=  1.00000, kpt=  0.3000  0.0000  0.0000 (reduced coord)
  -5.02844   1.04177   4.97383   4.97383   7.65017   9.39335   9.39335  13.37566
  13.48632  13.48632
 kpt#   6, nband= 10, wtk=  1.00000, kpt=  0.2500  0.0000  0.0000 (reduced coord)
  -5.36721   1.91966   5.12966   5.12966   7.82362   9.36953   9.36953  12.65954
  13.08611  13.08611
 kpt#   7, nband= 10, wtk=  1.00000, kpt=  0.2000  0.0000  0.0000 (reduced coord)
  -5.65397   2.84771   5.31162   5.31162   8.02103   9.22955   9.22955  11.80136
  12.94337  12.94337
 kpt#   8, nband= 10, wtk=  1.00000, kpt=  0.1500  0.0000  0.0000 (reduced coord)
  -5.88164   3.79993   5.50824   5.50824   8.22480   8.98935   8.98935  10.91288
  13.03605  13.03605
 kpt#   9, nband= 10, wtk=  1.00000, kpt=  0.1000  0.0000  0.0000 (reduced coord)
  -6.04632   4.73184   5.69789   5.69789   8.40029   8.71917   8.71917  10.04888
  13.27739  13.27742
 kpt#  10, nband= 10, wtk=  1.00000, kpt=  0.0500  0.0000  0.0000 (reduced coord)
  -6.14587   5.53321   5.84400   5.84400   8.47365   8.50516   8.50516   9.34954
  13.53803  13.53940
 kpt#  11, nband= 10, wtk=  1.00000, kpt=  0.0000  0.0000  0.0000 (reduced coord)
  -6.17917   5.90064   5.90064   5.90064   8.42281   8.42281   8.42281   9.09771
  13.54843  13.65610
 kpt#  12, nband= 10, wtk=  1.00000, kpt=  0.0000  0.0417  0.0417 (reduced coord)
  -6.14832   5.69627   5.77175   5.77175   8.34345   8.58870   8.58870   9.29525
  13.40681  13.68767
 kpt#  13, nband= 10, wtk=  1.00000, kpt=  0.0000  0.0833  0.0833 (reduced coord)
  -6.05590   5.19358   5.45982   5.45982   8.13066   9.01109   9.01109   9.74834
  12.84713  13.79152
 kpt#  14, nband= 10, wtk=  1.00000, kpt=  0.0000  0.1250  0.1250 (reduced coord)
  -5.90226   4.54842   5.07627   5.07627   7.83856   9.57708   9.57708  10.15445
  12.35542  13.96074
 kpt#  15, nband= 10, wtk=  1.00000, kpt=  0.0000  0.1667  0.1667 (reduced coord)
  -5.68801   3.84131   4.68422   4.68422   7.51795  10.08662  10.22141  10.22141
  12.40120  14.19742
 kpt#  16, nband= 10, wtk=  1.00000, kpt=  0.0000  0.2083  0.2083 (reduced coord)
  -5.41403   3.10610   4.31332   4.31332   7.20481   9.56099  10.91225  10.91225
  12.98935  14.50148
 kpt#  17, nband= 10, wtk=  1.00000, kpt=  0.0000  0.2500  0.2500 (reduced coord)
  -5.08152   2.35803   3.97822   3.97822   6.92242   8.92171  11.63316  11.63316
  13.78351  14.87269
 kpt#  18, nband= 10, wtk=  1.00000, kpt=  0.0000  0.2917  0.2917 (reduced coord)
  -4.69204   1.60578   3.68694   3.68694   6.68587   8.30892  12.37524  12.37524
  14.64242  15.31076
 kpt#  19, nband= 10, wtk=  1.00000, kpt=  0.0000  0.3333  0.3333 (reduced coord)
  -4.24754   0.85622   3.44423   3.44423   6.50545   7.76645  13.13370  13.13370
  15.51519  15.81532
 kpt#  20, nband= 10, wtk=  1.00000, kpt=  0.0000  0.3750  0.3750 (reduced coord)
  -3.75048   0.11612   3.25307   3.25307   6.38866   7.30952  13.90533  13.90533
  16.37565  16.38594
 kpt#  21, nband= 10, wtk=  1.00000, kpt=  0.0000  0.4167  0.4167 (reduced coord)
  -3.20389  -0.60751   3.11537   3.11537   6.34144   6.94265  14.68435  14.68435
  17.02203  17.20550
 kpt#  22, nband= 10, wtk=  1.00000, kpt=  0.0000  0.4583  0.4583 (reduced coord)
  -2.61146  -1.30764   3.03231   3.03231   6.36886   6.66551  15.44370  15.44370
  17.38016  17.38179
 kpt#  23, nband= 10, wtk=  1.00000, kpt=  0.0000  0.5000  0.5000 (reduced coord)
  -1.97763  -1.97763   3.00456   3.00456   6.47547   6.47547  15.92720  15.92720
  16.88686  16.88686
 kpt#  24, nband= 10, wtk=  1.00000, kpt=  0.0588  0.5294  0.5294 (reduced coord)
  -1.98987  -1.94465   2.80212   3.02922   6.50399   6.77771  15.63393  15.74596
  16.44707  16.56314
 kpt#  25, nband= 10, wtk=  1.00000, kpt=  0.1176  0.5588  0.5588 (reduced coord)
  -2.03481  -1.84579   2.35713   3.10279   6.58913   7.52960  14.99517  15.30452
  15.65017  15.92938
 kpt#  26, nband= 10, wtk=  1.00000, kpt=  0.1765  0.5882  0.5882 (reduced coord)
  -2.13587  -1.68124   1.89851   3.22390   6.72953   8.52295  14.25968  14.74945
  14.82098  15.24143
 kpt#  27, nband= 10, wtk=  1.00000, kpt=  0.2353  0.6176  0.6176 (reduced coord)
  -2.32327  -1.45137   1.55730   3.39016   6.92265   9.65056  13.51733  14.02619
  14.16180  14.56968
 kpt#  28, nband= 10, wtk=  1.00000, kpt=  0.2941  0.6471  0.6471 (reduced coord)
  -2.61390  -1.15667   1.39279   3.59786   7.16436  10.85035  12.80087  13.29709
  13.58190  13.94231
 kpt#  29, nband= 10, wtk=  1.00000, kpt=  0.3529  0.6765  0.6765 (reduced coord)
  -2.99415  -0.79784   1.41036   3.84169   7.44806  11.93131  12.12498  12.80139
  13.03374  13.37652
 kpt#  30, nband= 10, wtk=  1.00000, kpt=  0.4118  0.7059  0.7059 (reduced coord)
  -3.42838  -0.37578   1.58326   4.11425   7.76316  11.49744  11.77267  12.53591
  12.88629  13.63111
 kpt#  31, nband= 10, wtk=  1.00000, kpt=  0.4706  0.7353  0.7353 (reduced coord)
  -3.87970   0.10834   1.87819   4.40555   8.09249  10.92286  11.22533  12.10721
  12.48520  14.87548
 kpt#  32, nband= 10, wtk=  1.00000, kpt=  0.5294  0.7647  0.7647 (reduced coord)
  -4.32033   0.65298   2.26754   4.70273   8.40845  10.40424  10.70224  11.77054
  12.18759  15.95036
 kpt#  33, nband= 10, wtk=  1.00000, kpt=  0.5882  0.7941  0.7941 (reduced coord)
  -4.73182   1.25602   2.73009   4.99033   8.67067   9.94359  10.22843  11.55215
  12.00855  16.46070
 kpt#  34, nband= 10, wtk=  1.00000, kpt=  0.6471  0.8235  0.8235 (reduced coord)
  -5.10235   1.91446   3.24790   5.25182   8.83603   9.54232   9.80779  11.46214
  11.96217  15.58900
 kpt#  35, nband= 10, wtk=  1.00000, kpt=  0.7059  0.8529  0.8529 (reduced coord)
  -5.42428   2.62367   3.80277   5.47279   8.88879   9.20146   9.44012  11.43616
  12.05755  14.50154
 kpt#  36, nband= 10, wtk=  1.00000, kpt=  0.7647  0.8824  0.8824 (reduced coord)
  -5.69264   3.37576   4.37241   5.64467   8.85611   8.92175   9.12340  11.26251
  12.29307  13.74389
 kpt#  37, nband= 10, wtk=  1.00000, kpt=  0.8235  0.9118  0.9118 (reduced coord)
  -5.90410   4.15547   4.92543   5.76680   8.70372   8.77969   8.85527  10.72030
  12.64951  13.47772
 kpt#  38, nband= 10, wtk=  1.00000, kpt=  0.8824  0.9412  0.9412 (reduced coord)
  -6.05649   4.92778   5.41427   5.84495   8.54774   8.63680   8.68252   9.96300
  13.07907  13.52079
 kpt#  39, nband= 10, wtk=  1.00000, kpt=  0.9412  0.9706  0.9706 (reduced coord)
  -6.14844   5.59618   5.76790   5.88734   8.45405   8.48179   8.54517   9.32334
  13.47818  13.64219
 kpt#  40, nband= 10, wtk=  1.00000, kpt=  1.0000  1.0000  1.0000 (reduced coord)
  -6.17917   5.90064   5.90064   5.90064   8.42281   8.42281   8.42281   9.09771
  13.55190  13.65610
 Total charge density [el/Bohr^3]
,     Maximum=    8.5973E-02  at reduced coord.    0.1000    0.1000    0.7000
,Next maximum=    8.5973E-02  at reduced coord.    0.1000    0.7000    0.1000
,     Minimum=    3.5336E-03  at reduced coord.    0.5000    0.5000    0.5000
,Next minimum=    3.5802E-03  at reduced coord.    0.7667    0.7333    0.7333
,  Integrated=    8.0000E+00

== END DATASET(S) ==============================================================
================================================================================
  
 -outvars: echo values of variables after computation  --------
            acell      1.0216000000E+01  1.0216000000E+01  1.0216000000E+01 Bohr
              amu      2.80855000E+01
           diemac      1.20000000E+01
             ecut      2.00000000E+01 Hartree
           enunit1          0
           enunit2          1
           etotal1    -8.8769974001E+00
            fcart1     0.0000000000E+00  0.0000000000E+00  0.0000000000E+00
                       0.0000000000E+00  0.0000000000E+00  0.0000000000E+00
           getden1          0
           getden2         -1
             iscf1          7
             iscf2         -2
           istwfk2       3    0    0    0    0    0    0    0    0    0
                         2    0    0    0    0    0    0    0    0    0
                         0    0    8    0    0    0    0    0    0    0
                         0    0    0    0    0    0    0    0    0    0
                       outvar_i_n : Printing only first  50 k-points.
           jdtset        1    2
              kpt1    -3.12500000E-02 -6.25000000E-02  0.00000000E+00
                      -3.12500000E-02 -1.25000000E-01  0.00000000E+00
                      -6.25000000E-02 -9.37500000E-02  0.00000000E+00
                      -3.12500000E-02 -9.37500000E-02  3.12500000E-02
                      -3.12500000E-02 -1.87500000E-01  0.00000000E+00
                      -6.25000000E-02 -1.56250000E-01  0.00000000E+00
                      -3.12500000E-02 -1.56250000E-01  3.12500000E-02
                      -9.37500000E-02 -1.25000000E-01  0.00000000E+00
                      -6.25000000E-02 -1.25000000E-01  3.12500000E-02
                      -3.12500000E-02 -1.25000000E-01  6.25000000E-02
                      -3.12500000E-02 -2.50000000E-01  0.00000000E+00
                      -6.25000000E-02 -2.18750000E-01  0.00000000E+00
                      -3.12500000E-02 -2.18750000E-01  3.12500000E-02
                      -9.37500000E-02 -1.87500000E-01  0.00000000E+00
                      -6.25000000E-02 -1.87500000E-01  3.12500000E-02
                      -3.12500000E-02 -1.87500000E-01  6.25000000E-02
                      -1.25000000E-01 -1.56250000E-01  0.00000000E+00
                      -9.37500000E-02 -1.56250000E-01  3.12500000E-02
                      -6.25000000E-02 -1.56250000E-01  6.25000000E-02
                      -3.12500000E-02 -1.56250000E-01  9.37500000E-02
                      -3.12500000E-02 -3.12500000E-01  0.00000000E+00
                      -6.25000000E-02 -2.81250000E-01  0.00000000E+00
                      -3.12500000E-02 -2.81250000E-01  3.12500000E-02
                      -9.37500000E-02 -2.50000000E-01  0.00000000E+00
                      -6.25000000E-02 -2.50000000E-01  3.12500000E-02
                      -3.12500000E-02 -2.50000000E-01  6.25000000E-02
                      -1.25000000E-01 -2.18750000E-01  0.00000000E+00
                      -9.37500000E-02 -2.18750000E-01  3.12500000E-02
                      -6.25000000E-02 -2.18750000E-01  6.25000000E-02
                      -3.12500000E-02 -2.18750000E-01  9.37500000E-02
                      -1.56250000E-01 -1.87500000E-01  0.00000000E+00
                      -1.25000000E-01 -1.87500000E-01  3.12500000E-02
                      -9.37500000E-02 -1.87500000E-01  6.25000000E-02
                      -6.25000000E-02 -1.87500000E-01  9.37500000E-02
                      -3.12500000E-02 -1.87500000E-01  1.25000000E-01
                      -3.12500000E-02 -3.75000000E-01  0.00000000E+00
                      -6.25000000E-02 -3.43750000E-01  0.00000000E+00
                      -3.12500000E-02 -3.43750000E-01  3.12500000E-02
                      -9.37500000E-02 -3.12500000E-01  0.00000000E+00
                      -6.25000000E-02 -3.12500000E-01  3.12500000E-02
                      -3.12500000E-02 -3.12500000E-01  6.25000000E-02
                      -1.25000000E-01 -2.81250000E-01  0.00000000E+00
                      -9.37500000E-02 -2.81250000E-01  3.12500000E-02
                      -6.25000000E-02 -2.81250000E-01  6.25000000E-02
                      -3.12500000E-02 -2.81250000E-01  9.37500000E-02
                      -1.56250000E-01 -2.50000000E-01  0.00000000E+00
                      -1.25000000E-01 -2.50000000E-01  3.12500000E-02
                      -9.37500000E-02 -2.50000000E-01  6.25000000E-02
                      -6.25000000E-02 -2.50000000E-01  9.37500000E-02
                      -3.12500000E-02 -2.50000000E-01  1.25000000E-01
              kpt2     5.00000000E-01  0.00000000E+00  0.00000000E+00
                       4.50000000E-01  0.00000000E+00  0.00000000E+00
                       4.00000000E-01  0.00000000E+00  0.00000000E+00
                       3.50000000E-01  0.00000000E+00  0.00000000E+00
                       3.00000000E-01  0.00000000E+00  0.00000000E+00
                       2.50000000E-01  0.00000000E+00  0.00000000E+00
                       2.00000000E-01  0.00000000E+00  0.00000000E+00
                       1.50000000E-01  0.00000000E+00  0.00000000E+00
                       1.00000000E-01  0.00000000E+00  0.00000000E+00
                       5.00000000E-02  0.00000000E+00  0.00000000E+00
                       0.00000000E+00  0.00000000E+00  0.00000000E+00
                       0.00000000E+00  4.16666667E-02  4.16666667E-02
                       0.00000000E+00  8.33333333E-02  8.33333333E-02
                       0.00000000E+00  1.25000000E-01  1.25000000E-01
                       0.00000000E+00  1.66666667E-01  1.66666667E-01
                       0.00000000E+00  2.08333333E-01  2.08333333E-01
                       0.00000000E+00  2.50000000E-01  2.50000000E-01
                       0.00000000E+00  2.91666667E-01  2.91666667E-01
                       0.00000000E+00  3.33333333E-01  3.33333333E-01
                       0.00000000E+00  3.75000000E-01  3.75000000E-01
                       0.00000000E+00  4.16666667E-01  4.16666667E-01
                       0.00000000E+00  4.58333333E-01  4.58333333E-01
                       0.00000000E+00  5.00000000E-01  5.00000000E-01
                       5.88235294E-02  5.29411765E-01  5.29411765E-01
                       1.17647059E-01  5.58823529E-01  5.58823529E-01
                       1.76470588E-01  5.88235294E-01  5.88235294E-01
                       2.35294118E-01  6.17647059E-01  6.17647059E-01
                       2.94117647E-01  6.47058824E-01  6.47058824E-01
                       3.52941176E-01  6.76470588E-01  6.76470588E-01
                       4.11764706E-01  7.05882353E-01  7.05882353E-01
                       4.70588235E-01  7.35294118E-01  7.35294118E-01
                       5.29411765E-01  7.64705882E-01  7.64705882E-01
                       5.88235294E-01  7.94117647E-01  7.94117647E-01
                       6.47058824E-01  8.23529412E-01  8.23529412E-01
                       7.05882353E-01  8.52941176E-01  8.52941176E-01
                       7.64705882E-01  8.82352941E-01  8.82352941E-01
                       8.23529412E-01  9.11764706E-01  9.11764706E-01
                       8.82352941E-01  9.41176471E-01  9.41176471E-01
                       9.41176471E-01  9.70588235E-01  9.70588235E-01
                       1.00000000E+00  1.00000000E+00  1.00000000E+00
                       outvar_i_n : Printing only first  50 k-points.
           kptopt1          1
           kptopt2         -3
         kptrlatt       16  -16   16    -16   16   16    -16  -16   16
          kptrlen1     1.63456000E+02
          kptrlen2     3.00000000E+01
P           mkmem1        408
P           mkmem2         40
            natom           2
            nband1          5
            nband2         10
           nbdbuf1          0
           nbdbuf2          2
           ndtset           2
            ngfft          30      30      30
             nkpt1        408
             nkpt2         40
            nstep          50
             nsym          48
           ntypat           1
              occ      2.000000  2.000000  2.000000  2.000000  0.000000
        optforces           1
            rprim      0.0000000000E+00  5.0000000000E-01  5.0000000000E-01
                       5.0000000000E-01  0.0000000000E+00  5.0000000000E-01
                       5.0000000000E-01  5.0000000000E-01  0.0000000000E+00
           shiftk      5.00000000E-01  5.00000000E-01  5.00000000E-01
          spgroup         227
           strten1     1.4847779110E-05  1.4847779110E-05  1.4847779110E-05
                       0.0000000000E+00  0.0000000000E+00  0.0000000000E+00
           symrel      1  0  0   0  1  0   0  0  1      -1  0  0   0 -1  0   0  0 -1
                       0 -1  1   0 -1  0   1 -1  0       0  1 -1   0  1  0  -1  1  0
                      -1  0  0  -1  0  1  -1  1  0       1  0  0   1  0 -1   1 -1  0
                       0  1 -1   1  0 -1   0  0 -1       0 -1  1  -1  0  1   0  0  1
                      -1  0  0  -1  1  0  -1  0  1       1  0  0   1 -1  0   1  0 -1
                       0 -1  1   1 -1  0   0 -1  0       0  1 -1  -1  1  0   0  1  0
                       1  0  0   0  0  1   0  1  0      -1  0  0   0  0 -1   0 -1  0
                       0  1 -1   0  0 -1   1  0 -1       0 -1  1   0  0  1  -1  0  1
                      -1  0  1  -1  1  0  -1  0  0       1  0 -1   1 -1  0   1  0  0
                       0 -1  0   1 -1  0   0 -1  1       0  1  0  -1  1  0   0  1 -1
                       1  0 -1   0  0 -1   0  1 -1      -1  0  1   0  0  1   0 -1  1
                       0  1  0   0  0  1   1  0  0       0 -1  0   0  0 -1  -1  0  0
                       1  0 -1   0  1 -1   0  0 -1      -1  0  1   0 -1  1   0  0  1
                       0 -1  0   0 -1  1   1 -1  0       0  1  0   0  1 -1  -1  1  0
                      -1  0  1  -1  0  0  -1  1  0       1  0 -1   1  0  0   1 -1  0
                       0  1  0   1  0  0   0  0  1       0 -1  0  -1  0  0   0  0 -1
                       0  0 -1   0  1 -1   1  0 -1       0  0  1   0 -1  1  -1  0  1
                       1 -1  0   0 -1  1   0 -1  0      -1  1  0   0  1 -1   0  1  0
                       0  0  1   1  0  0   0  1  0       0  0 -1  -1  0  0   0 -1  0
                      -1  1  0  -1  0  0  -1  0  1       1 -1  0   1  0  0   1  0 -1
                       0  0  1   0  1  0   1  0  0       0  0 -1   0 -1  0  -1  0  0
                       1 -1  0   0 -1  0   0 -1  1      -1  1  0   0  1  0   0  1 -1
                       0  0 -1   1  0 -1   0  1 -1       0  0  1  -1  0  1   0 -1  1
                      -1  1  0  -1  0  1  -1  0  0       1 -1  0   1  0 -1   1  0  0
            tnons      0.0000000  0.0000000  0.0000000     0.2500000  0.2500000  0.2500000
                       0.0000000  0.0000000  0.0000000     0.2500000  0.2500000  0.2500000
                       0.0000000  0.0000000  0.0000000     0.2500000  0.2500000  0.2500000
                       0.0000000  0.0000000  0.0000000     0.2500000  0.2500000  0.2500000
                       0.0000000  0.0000000  0.0000000     0.2500000  0.2500000  0.2500000
                       0.0000000  0.0000000  0.0000000     0.2500000  0.2500000  0.2500000
                       0.0000000  0.0000000  0.0000000     0.2500000  0.2500000  0.2500000
                       0.0000000  0.0000000  0.0000000     0.2500000  0.2500000  0.2500000
                       0.0000000  0.0000000  0.0000000     0.2500000  0.2500000  0.2500000
                       0.0000000  0.0000000  0.0000000     0.2500000  0.2500000  0.2500000
                       0.0000000  0.0000000  0.0000000     0.2500000  0.2500000  0.2500000
                       0.0000000  0.0000000  0.0000000     0.2500000  0.2500000  0.2500000
                       0.0000000  0.0000000  0.0000000     0.2500000  0.2500000  0.2500000
                       0.0000000  0.0000000  0.0000000     0.2500000  0.2500000  0.2500000
                       0.0000000  0.0000000  0.0000000     0.2500000  0.2500000  0.2500000
                       0.0000000  0.0000000  0.0000000     0.2500000  0.2500000  0.2500000
                       0.0000000  0.0000000  0.0000000     0.2500000  0.2500000  0.2500000
                       0.0000000  0.0000000  0.0000000     0.2500000  0.2500000  0.2500000
                       0.0000000  0.0000000  0.0000000     0.2500000  0.2500000  0.2500000
                       0.0000000  0.0000000  0.0000000     0.2500000  0.2500000  0.2500000
                       0.0000000  0.0000000  0.0000000     0.2500000  0.2500000  0.2500000
                       0.0000000  0.0000000  0.0000000     0.2500000  0.2500000  0.2500000
                       0.0000000  0.0000000  0.0000000     0.2500000  0.2500000  0.2500000
                       0.0000000  0.0000000  0.0000000     0.2500000  0.2500000  0.2500000
           toldfe1     1.00000000E-09 Hartree
           toldfe2     0.00000000E+00 Hartree
           tolwfr1     0.00000000E+00
           tolwfr2     1.00000000E-12
            typat      1  1
              wtk1       0.00146    0.00146    0.00146    0.00293    0.00146    0.00146
                         0.00293    0.00146    0.00293    0.00293    0.00146    0.00146
                         0.00293    0.00146    0.00293    0.00293    0.00146    0.00293
                         0.00293    0.00293    0.00146    0.00146    0.00293    0.00146
                         0.00293    0.00293    0.00146    0.00293    0.00293    0.00293
                         0.00146    0.00293    0.00293    0.00293    0.00293    0.00146
                         0.00146    0.00293    0.00146    0.00293    0.00293    0.00146
                         0.00293    0.00293    0.00293    0.00146    0.00293    0.00293
                         0.00293    0.00293
              wtk2       1.00000    1.00000    1.00000    1.00000    1.00000    1.00000
                         1.00000    1.00000    1.00000    1.00000    1.00000    1.00000
                         1.00000    1.00000    1.00000    1.00000    1.00000    1.00000
                         1.00000    1.00000    1.00000    1.00000    1.00000    1.00000
                         1.00000    1.00000    1.00000    1.00000    1.00000    1.00000
                         1.00000    1.00000    1.00000    1.00000    1.00000    1.00000
                         1.00000    1.00000    1.00000    1.00000
                       outvars : Printing only first  50 k-points.
           xangst      0.0000000000E+00  0.0000000000E+00  0.0000000000E+00
                       1.3515185907E+00  1.3515185907E+00  1.3515185907E+00
            xcart      0.0000000000E+00  0.0000000000E+00  0.0000000000E+00
                       2.5540000000E+00  2.5540000000E+00  2.5540000000E+00
             xred      0.0000000000E+00  0.0000000000E+00  0.0000000000E+00
                       2.5000000000E-01  2.5000000000E-01  2.5000000000E-01
            znucl       14.00000

================================================================================


- Timing analysis has been suppressed with timopt=0



================================================================================

 Suggested references for the acknowledgment of ABINIT usage.

 The users of ABINIT have little formal obligations with respect to the ABINIT group
 (those specified in the GNU General Public License, http://www.gnu.org/copyleft/gpl.txt).
 However, it is common practice in the scientific literature,
 to acknowledge the efforts of people that have made the research possible.
 In this spirit, please find below suggested citations of work written by ABINIT developers,
 corresponding to implementations inside of ABINIT that you have used in the present run.
 Note also that it will be of great value to readers of publications presenting these results,
 to read papers enabling them to understand the theoretical formalism and details
 of the ABINIT implementation.
 For information on why they are suggested, see also http://www.abinit.org/about/?text=acknowledgments.

 [1] ABINIT : First-principles approach of materials and nanosystem properties.
 X. Gonze, B. Amadon, P.-M. Anglade, J.-M. Beuken, F. Bottin, P. Boulanger, F. Bruneval,
 D. Caliste, R. Caracas, M. Cote, T. Deutsch, L. Genovese, Ph. Ghosez, M. Giantomassi
 S. Goedecker, D.R. Hamann, P. Hermet, F. Jollet, G. Jomard, S. Leroux, M. Mancini, S. Mazevet,
 M.J.T. Oliveira, G. Onida, Y. Pouillon, T. Rangel, G.-M. Rignanese, D. Sangalli, R. Shaltaf,
 M. Torrent, M.J. Verstraete, G. Zerah, J.W. Zwanziger
 Computer Phys. Comm. 180, 2582-2615 (2009).
 Comment : the third generic paper describing the ABINIT project.
 Note that a version of this paper, that is not formatted for Computer Phys. Comm. 
 is available at http://www.abinit.org/about/ABINIT_CPC_v10.pdf .
 The licence allows the authors to put it on the Web.

 [2] A brief introduction to the ABINIT software package.
 X. Gonze, G.-M. Rignanese, M. Verstraete, J.-M. Beuken, Y. Pouillon, R. Caracas, F. Jollet,
 M. Torrent, G. Zerah, M. Mikami, Ph. Ghosez, M. Veithen, J.-Y. Raty, V. Olevano, F. Bruneval,
 L. Reining, R. Godby, G. Onida, D.R. Hamann, and D.C. Allan.
 Z. Kristallogr. 220, 558-562 (2005).
 Comment : the second generic paper describing the ABINIT project. Note that this paper
 should be cited especially if you are using the GW part of ABINIT, as several authors
 of this part are not in the list of authors of the first or third paper.
 The .pdf of the latter paper is available at http://www.abinit.org/about/zfk_0505-06_558-562.pdf.
 Note that it should not redistributed (Copyright by Oldenburg Wissenshaftverlag,
 the licence allows the authors to put it on the Web).


 And optionally :

 [3] First-principles computation of material properties : the ABINIT software project. 
 X. Gonze, J.-M. Beuken, R. Caracas, F. Detraux, M. Fuchs, G.-M. Rignanese, L. Sindic,
 M. Verstraete, G. Zerah, F. Jollet, M. Torrent, A. Roy, M. Mikami, Ph. Ghosez, J.-Y. Raty, D.C. Allan.
 Computational Materials Science 25, 478-492 (2002). http://dx.doi.org/10.1016/S0927-0256(02)00325-7
 Comment : the original paper describing the ABINIT project.

 [4] Fast radix 2, 3, 4 and 5 kernels for Fast Fourier Transformations
 on computers with overlapping multiply-add instructions.
 S. Goedecker, SIAM J. on Scientific Computing 18, 1605 (1997).
-
- Proc.   0 individual time (sec): cpu=         96.5  wall=         97.6

================================================================================

 Calculation completed.
.Delivered    2 WARNINGs and   4 COMMENTs to log file.
+Overall time at end (sec) : cpu=         96.5  wall=         97.6
