
.Version 7.2.2 of ABINIT 
.(MPI version, prepared for a x86_64_linux_intel13.1 computer) 

.Copyright (C) 1998-2013 ABINIT group . 
 ABINIT comes with ABSOLUTELY NO WARRANTY.
 It is free software, and you are welcome to redistribute it
 under certain conditions (GNU General Public License,
 see ~abinit/COPYING or http://www.gnu.org/copyleft/gpl.txt).

 ABINIT is a project of the Universite Catholique de Louvain,
 Corning Inc. and other collaborators, see ~abinit/doc/developers/contributors.txt .
 Please read ~abinit/doc/users/acknowledgments.html for suggested
 acknowledgments of the ABINIT effort.
 For more information, see http://www.abinit.org .

.Starting date : Thu 15 Aug 2013.
- ( at 19h32 )
  
- input  file    -> tbase3_1.in
- output file    -> tbase3_1.out
- root for input  files -> in_tbase3
- root for output files -> out_tbase3


 DATASET    1 : space group Fd -3 m (#227); Bravais cF (face-center cubic)
================================================================================
 Values of the parameters that define the memory need for DATASET  1.
   intxc =         0  ionmov =         0    iscf =         7 xclevel =         1
  lmnmax =         2   lnmax =         2   mband =         5  mffmem =         1
P  mgfft =        30   mkmem =        60 mpssoang=         3     mpw =      1017
  mqgrid =      3001   natom =         2    nfft =     27000    nkpt =        60
  nloalg =         4  nspden =         1 nspinor =         1  nsppol =         1
    nsym =        48  n1xccc =      2501  ntypat =         1  occopt =         1
================================================================================
P This job should need less than                      13.729 Mbytes of memory.
  Rough estimation (10% accuracy) of disk space for files :
_ WF disk file :      4.657 Mbytes ; DEN or POT disk file :      0.208 Mbytes.
================================================================================


 DATASET    2 : space group Fd -3 m (#227); Bravais cF (face-center cubic)
================================================================================
 Values of the parameters that define the memory need for DATASET  2.
   intxc =         0  ionmov =         0    iscf =         7 xclevel =         1
  lmnmax =         2   lnmax =         2   mband =         5  mffmem =         1
P  mgfft =        30   mkmem =        60 mpssoang=         3     mpw =      1023
  mqgrid =      3001   natom =         2    nfft =     27000    nkpt =        60
  nloalg =         4  nspden =         1 nspinor =         1  nsppol =         1
    nsym =        48  n1xccc =      2501  ntypat =         1  occopt =         1
================================================================================
P This job should need less than                      13.762 Mbytes of memory.
  Rough estimation (10% accuracy) of disk space for files :
_ WF disk file :      4.685 Mbytes ; DEN or POT disk file :      0.208 Mbytes.
================================================================================


 DATASET    3 : space group Fd -3 m (#227); Bravais cF (face-center cubic)
================================================================================
 Values of the parameters that define the memory need for DATASET  3.
   intxc =         0  ionmov =         0    iscf =         7 xclevel =         1
  lmnmax =         2   lnmax =         2   mband =         5  mffmem =         1
P  mgfft =        30   mkmem =        60 mpssoang=         3     mpw =      1026
  mqgrid =      3001   natom =         2    nfft =     27000    nkpt =        60
  nloalg =         4  nspden =         1 nspinor =         1  nsppol =         1
    nsym =        48  n1xccc =      2501  ntypat =         1  occopt =         1
================================================================================
P This job should need less than                      13.779 Mbytes of memory.
  Rough estimation (10% accuracy) of disk space for files :
_ WF disk file :      4.699 Mbytes ; DEN or POT disk file :      0.208 Mbytes.
================================================================================


 DATASET    4 : space group Fd -3 m (#227); Bravais cF (face-center cubic)
================================================================================
 Values of the parameters that define the memory need for DATASET  4.
   intxc =         0  ionmov =         0    iscf =         7 xclevel =         1
  lmnmax =         2   lnmax =         2   mband =         5  mffmem =         1
P  mgfft =        30   mkmem =        60 mpssoang=         3     mpw =      1033
  mqgrid =      3001   natom =         2    nfft =     27000    nkpt =        60
  nloalg =         4  nspden =         1 nspinor =         1  nsppol =         1
    nsym =        48  n1xccc =      2501  ntypat =         1  occopt =         1
================================================================================
P This job should need less than                      13.818 Mbytes of memory.
  Rough estimation (10% accuracy) of disk space for files :
_ WF disk file :      4.731 Mbytes ; DEN or POT disk file :      0.208 Mbytes.
================================================================================


 DATASET    5 : space group Fd -3 m (#227); Bravais cF (face-center cubic)
================================================================================
 Values of the parameters that define the memory need for DATASET  5.
   intxc =         0  ionmov =         0    iscf =         7 xclevel =         1
  lmnmax =         2   lnmax =         2   mband =         5  mffmem =         1
P  mgfft =        30   mkmem =        60 mpssoang=         3     mpw =      1038
  mqgrid =      3001   natom =         2    nfft =     27000    nkpt =        60
  nloalg =         4  nspden =         1 nspinor =         1  nsppol =         1
    nsym =        48  n1xccc =      2501  ntypat =         1  occopt =         1
================================================================================
P This job should need less than                      13.846 Mbytes of memory.
  Rough estimation (10% accuracy) of disk space for files :
_ WF disk file :      4.754 Mbytes ; DEN or POT disk file :      0.208 Mbytes.
================================================================================


 DATASET    6 : space group Fd -3 m (#227); Bravais cF (face-center cubic)
================================================================================
 Values of the parameters that define the memory need for DATASET  6.
   intxc =         0  ionmov =         0    iscf =         7 xclevel =         1
  lmnmax =         2   lnmax =         2   mband =         5  mffmem =         1
P  mgfft =        30   mkmem =        60 mpssoang=         3     mpw =      1043
  mqgrid =      3001   natom =         2    nfft =     27000    nkpt =        60
  nloalg =         4  nspden =         1 nspinor =         1  nsppol =         1
    nsym =        48  n1xccc =      2501  ntypat =         1  occopt =         1
================================================================================
P This job should need less than                      13.874 Mbytes of memory.
  Rough estimation (10% accuracy) of disk space for files :
_ WF disk file :      4.776 Mbytes ; DEN or POT disk file :      0.208 Mbytes.
================================================================================


 DATASET    7 : space group Fd -3 m (#227); Bravais cF (face-center cubic)
================================================================================
 Values of the parameters that define the memory need for DATASET  7.
   intxc =         0  ionmov =         0    iscf =         7 xclevel =         1
  lmnmax =         2   lnmax =         2   mband =         5  mffmem =         1
P  mgfft =        30   mkmem =        60 mpssoang=         3     mpw =      1051
  mqgrid =      3001   natom =         2    nfft =     27000    nkpt =        60
  nloalg =         4  nspden =         1 nspinor =         1  nsppol =         1
    nsym =        48  n1xccc =      2501  ntypat =         1  occopt =         1
================================================================================
P This job should need less than                      13.918 Mbytes of memory.
  Rough estimation (10% accuracy) of disk space for files :
_ WF disk file :      4.813 Mbytes ; DEN or POT disk file :      0.208 Mbytes.
================================================================================


 DATASET    8 : space group Fd -3 m (#227); Bravais cF (face-center cubic)
================================================================================
 Values of the parameters that define the memory need for DATASET  8.
   intxc =         0  ionmov =         0    iscf =         7 xclevel =         1
  lmnmax =         2   lnmax =         2   mband =         5  mffmem =         1
P  mgfft =        30   mkmem =        60 mpssoang=         3     mpw =      1060
  mqgrid =      3001   natom =         2    nfft =     27000    nkpt =        60
  nloalg =         4  nspden =         1 nspinor =         1  nsppol =         1
    nsym =        48  n1xccc =      2501  ntypat =         1  occopt =         1
================================================================================
P This job should need less than                      13.968 Mbytes of memory.
  Rough estimation (10% accuracy) of disk space for files :
_ WF disk file :      4.854 Mbytes ; DEN or POT disk file :      0.208 Mbytes.
================================================================================


 DATASET    9 : space group Fd -3 m (#227); Bravais cF (face-center cubic)
================================================================================
 Values of the parameters that define the memory need for DATASET  9.
   intxc =         0  ionmov =         0    iscf =         7 xclevel =         1
  lmnmax =         2   lnmax =         2   mband =         5  mffmem =         1
P  mgfft =        30   mkmem =        60 mpssoang=         3     mpw =      1066
  mqgrid =      3001   natom =         2    nfft =     27000    nkpt =        60
  nloalg =         4  nspden =         1 nspinor =         1  nsppol =         1
    nsym =        48  n1xccc =      2501  ntypat =         1  occopt =         1
================================================================================
P This job should need less than                      14.002 Mbytes of memory.
  Rough estimation (10% accuracy) of disk space for files :
_ WF disk file :      4.882 Mbytes ; DEN or POT disk file :      0.208 Mbytes.
================================================================================


 DATASET   10 : space group Fd -3 m (#227); Bravais cF (face-center cubic)
================================================================================
 Values of the parameters that define the memory need for DATASET 10.
   intxc =         0  ionmov =         0    iscf =         7 xclevel =         1
  lmnmax =         2   lnmax =         2   mband =         5  mffmem =         1
P  mgfft =        30   mkmem =        60 mpssoang=         3     mpw =      1074
  mqgrid =      3001   natom =         2    nfft =     27000    nkpt =        60
  nloalg =         4  nspden =         1 nspinor =         1  nsppol =         1
    nsym =        48  n1xccc =      2501  ntypat =         1  occopt =         1
================================================================================
P This job should need less than                      14.046 Mbytes of memory.
  Rough estimation (10% accuracy) of disk space for files :
_ WF disk file :      4.918 Mbytes ; DEN or POT disk file :      0.208 Mbytes.
================================================================================


 DATASET   11 : space group Fd -3 m (#227); Bravais cF (face-center cubic)
================================================================================
 Values of the parameters that define the memory need for DATASET 11.
   intxc =         0  ionmov =         0    iscf =         7 xclevel =         1
  lmnmax =         2   lnmax =         2   mband =         5  mffmem =         1
P  mgfft =        30   mkmem =        60 mpssoang=         3     mpw =      1077
  mqgrid =      3001   natom =         2    nfft =     27000    nkpt =        60
  nloalg =         4  nspden =         1 nspinor =         1  nsppol =         1
    nsym =        48  n1xccc =      2501  ntypat =         1  occopt =         1
================================================================================
P This job should need less than                      14.063 Mbytes of memory.
  Rough estimation (10% accuracy) of disk space for files :
_ WF disk file :      4.932 Mbytes ; DEN or POT disk file :      0.208 Mbytes.
================================================================================


 DATASET   12 : space group Fd -3 m (#227); Bravais cF (face-center cubic)
================================================================================
 Values of the parameters that define the memory need for DATASET 12.
   intxc =         0  ionmov =         0    iscf =         7 xclevel =         1
  lmnmax =         2   lnmax =         2   mband =         5  mffmem =         1
P  mgfft =        30   mkmem =        60 mpssoang=         3     mpw =      1083
  mqgrid =      3001   natom =         2    nfft =     27000    nkpt =        60
  nloalg =         4  nspden =         1 nspinor =         1  nsppol =         1
    nsym =        48  n1xccc =      2501  ntypat =         1  occopt =         1
================================================================================
P This job should need less than                      14.097 Mbytes of memory.
  Rough estimation (10% accuracy) of disk space for files :
_ WF disk file :      4.960 Mbytes ; DEN or POT disk file :      0.208 Mbytes.
================================================================================


 DATASET   13 : space group Fd -3 m (#227); Bravais cF (face-center cubic)
================================================================================
 Values of the parameters that define the memory need for DATASET 13.
   intxc =         0  ionmov =         0    iscf =         7 xclevel =         1
  lmnmax =         2   lnmax =         2   mband =         5  mffmem =         1
P  mgfft =        30   mkmem =        60 mpssoang=         3     mpw =      1090
  mqgrid =      3001   natom =         2    nfft =     27000    nkpt =        60
  nloalg =         4  nspden =         1 nspinor =         1  nsppol =         1
    nsym =        48  n1xccc =      2501  ntypat =         1  occopt =         1
================================================================================
P This job should need less than                      14.136 Mbytes of memory.
  Rough estimation (10% accuracy) of disk space for files :
_ WF disk file :      4.992 Mbytes ; DEN or POT disk file :      0.208 Mbytes.
================================================================================


 DATASET   14 : space group Fd -3 m (#227); Bravais cF (face-center cubic)
================================================================================
 Values of the parameters that define the memory need for DATASET 14.
   intxc =         0  ionmov =         0    iscf =         7 xclevel =         1
  lmnmax =         2   lnmax =         2   mband =         5  mffmem =         1
P  mgfft =        30   mkmem =        60 mpssoang=         3     mpw =      1099
  mqgrid =      3001   natom =         2    nfft =     27000    nkpt =        60
  nloalg =         4  nspden =         1 nspinor =         1  nsppol =         1
    nsym =        48  n1xccc =      2501  ntypat =         1  occopt =         1
================================================================================
P This job should need less than                      14.186 Mbytes of memory.
  Rough estimation (10% accuracy) of disk space for files :
_ WF disk file :      5.033 Mbytes ; DEN or POT disk file :      0.208 Mbytes.
================================================================================


 DATASET   15 : space group Fd -3 m (#227); Bravais cF (face-center cubic)
================================================================================
 Values of the parameters that define the memory need for DATASET 15.
   intxc =         0  ionmov =         0    iscf =         7 xclevel =         1
  lmnmax =         2   lnmax =         2   mband =         5  mffmem =         1
P  mgfft =        30   mkmem =        60 mpssoang=         3     mpw =      1104
  mqgrid =      3001   natom =         2    nfft =     27000    nkpt =        60
  nloalg =         4  nspden =         1 nspinor =         1  nsppol =         1
    nsym =        48  n1xccc =      2501  ntypat =         1  occopt =         1
================================================================================
P This job should need less than                      14.214 Mbytes of memory.
  Rough estimation (10% accuracy) of disk space for files :
_ WF disk file :      5.056 Mbytes ; DEN or POT disk file :      0.208 Mbytes.
================================================================================


 DATASET   16 : space group Fd -3 m (#227); Bravais cF (face-center cubic)
================================================================================
 Values of the parameters that define the memory need for DATASET 16.
   intxc =         0  ionmov =         0    iscf =         7 xclevel =         1
  lmnmax =         2   lnmax =         2   mband =         5  mffmem =         1
P  mgfft =        30   mkmem =        60 mpssoang=         3     mpw =      1112
  mqgrid =      3001   natom =         2    nfft =     27000    nkpt =        60
  nloalg =         4  nspden =         1 nspinor =         1  nsppol =         1
    nsym =        48  n1xccc =      2501  ntypat =         1  occopt =         1
================================================================================
P This job should need less than                      14.258 Mbytes of memory.
  Rough estimation (10% accuracy) of disk space for files :
_ WF disk file :      5.092 Mbytes ; DEN or POT disk file :      0.208 Mbytes.
================================================================================


 DATASET   17 : space group Fd -3 m (#227); Bravais cF (face-center cubic)
================================================================================
 Values of the parameters that define the memory need for DATASET 17.
   intxc =         0  ionmov =         0    iscf =         7 xclevel =         1
  lmnmax =         2   lnmax =         2   mband =         5  mffmem =         1
P  mgfft =        30   mkmem =        60 mpssoang=         3     mpw =      1122
  mqgrid =      3001   natom =         2    nfft =     27000    nkpt =        60
  nloalg =         4  nspden =         1 nspinor =         1  nsppol =         1
    nsym =        48  n1xccc =      2501  ntypat =         1  occopt =         1
================================================================================
P This job should need less than                      14.314 Mbytes of memory.
  Rough estimation (10% accuracy) of disk space for files :
_ WF disk file :      5.138 Mbytes ; DEN or POT disk file :      0.208 Mbytes.
================================================================================


 DATASET   18 : space group Fd -3 m (#227); Bravais cF (face-center cubic)
================================================================================
 Values of the parameters that define the memory need for DATASET 18.
   intxc =         0  ionmov =         0    iscf =         7 xclevel =         1
  lmnmax =         2   lnmax =         2   mband =         5  mffmem =         1
P  mgfft =        30   mkmem =        60 mpssoang=         3     mpw =      1127
  mqgrid =      3001   natom =         2    nfft =     27000    nkpt =        60
  nloalg =         4  nspden =         1 nspinor =         1  nsppol =         1
    nsym =        48  n1xccc =      2501  ntypat =         1  occopt =         1
================================================================================
P This job should need less than                      14.342 Mbytes of memory.
  Rough estimation (10% accuracy) of disk space for files :
_ WF disk file :      5.161 Mbytes ; DEN or POT disk file :      0.208 Mbytes.
================================================================================


 DATASET   19 : space group Fd -3 m (#227); Bravais cF (face-center cubic)
================================================================================
 Values of the parameters that define the memory need for DATASET 19.
   intxc =         0  ionmov =         0    iscf =         7 xclevel =         1
  lmnmax =         2   lnmax =         2   mband =         5  mffmem =         1
P  mgfft =        30   mkmem =        60 mpssoang=         3     mpw =      1133
  mqgrid =      3001   natom =         2    nfft =     27000    nkpt =        60
  nloalg =         4  nspden =         1 nspinor =         1  nsppol =         1
    nsym =        48  n1xccc =      2501  ntypat =         1  occopt =         1
================================================================================
P This job should need less than                      14.375 Mbytes of memory.
  Rough estimation (10% accuracy) of disk space for files :
_ WF disk file :      5.188 Mbytes ; DEN or POT disk file :      0.208 Mbytes.
================================================================================


 DATASET   20 : space group Fd -3 m (#227); Bravais cF (face-center cubic)
================================================================================
 Values of the parameters that define the memory need for DATASET 20.
   intxc =         0  ionmov =         0    iscf =         7 xclevel =         1
  lmnmax =         2   lnmax =         2   mband =         5  mffmem =         1
P  mgfft =        30   mkmem =        60 mpssoang=         3     mpw =      1143
  mqgrid =      3001   natom =         2    nfft =     27000    nkpt =        60
  nloalg =         4  nspden =         1 nspinor =         1  nsppol =         1
    nsym =        48  n1xccc =      2501  ntypat =         1  occopt =         1
================================================================================
P This job should need less than                      14.431 Mbytes of memory.
  Rough estimation (10% accuracy) of disk space for files :
_ WF disk file :      5.234 Mbytes ; DEN or POT disk file :      0.208 Mbytes.
================================================================================


 DATASET   21 : space group Fd -3 m (#227); Bravais cF (face-center cubic)
================================================================================
 Values of the parameters that define the memory need for DATASET 21.
   intxc =         0  ionmov =         0    iscf =         7 xclevel =         1
  lmnmax =         2   lnmax =         2   mband =         5  mffmem =         1
P  mgfft =        30   mkmem =        60 mpssoang=         3     mpw =      1146
  mqgrid =      3001   natom =         2    nfft =     27000    nkpt =        60
  nloalg =         4  nspden =         1 nspinor =         1  nsppol =         1
    nsym =        48  n1xccc =      2501  ntypat =         1  occopt =         1
================================================================================
P This job should need less than                      14.448 Mbytes of memory.
  Rough estimation (10% accuracy) of disk space for files :
_ WF disk file :      5.248 Mbytes ; DEN or POT disk file :      0.208 Mbytes.
================================================================================


 DATASET   22 : space group Fd -3 m (#227); Bravais cF (face-center cubic)
================================================================================
 Values of the parameters that define the memory need for DATASET 22.
   intxc =         0  ionmov =         0    iscf =         7 xclevel =         1
  lmnmax =         2   lnmax =         2   mband =         5  mffmem =         1
P  mgfft =        30   mkmem =        60 mpssoang=         3     mpw =      1153
  mqgrid =      3001   natom =         2    nfft =     27000    nkpt =        60
  nloalg =         4  nspden =         1 nspinor =         1  nsppol =         1
    nsym =        48  n1xccc =      2501  ntypat =         1  occopt =         1
================================================================================
P This job should need less than                      14.487 Mbytes of memory.
  Rough estimation (10% accuracy) of disk space for files :
_ WF disk file :      5.280 Mbytes ; DEN or POT disk file :      0.208 Mbytes.
================================================================================


 DATASET   23 : space group Fd -3 m (#227); Bravais cF (face-center cubic)
================================================================================
 Values of the parameters that define the memory need for DATASET 23.
   intxc =         0  ionmov =         0    iscf =         7 xclevel =         1
  lmnmax =         2   lnmax =         2   mband =         5  mffmem =         1
P  mgfft =        30   mkmem =        60 mpssoang=         3     mpw =      1167
  mqgrid =      3001   natom =         2    nfft =     27000    nkpt =        60
  nloalg =         4  nspden =         1 nspinor =         1  nsppol =         1
    nsym =        48  n1xccc =      2501  ntypat =         1  occopt =         1
================================================================================
P This job should need less than                      14.565 Mbytes of memory.
  Rough estimation (10% accuracy) of disk space for files :
_ WF disk file :      5.344 Mbytes ; DEN or POT disk file :      0.208 Mbytes.
================================================================================


 DATASET   24 : space group Fd -3 m (#227); Bravais cF (face-center cubic)
================================================================================
 Values of the parameters that define the memory need for DATASET 24.
   intxc =         0  ionmov =         0    iscf =         7 xclevel =         1
  lmnmax =         2   lnmax =         2   mband =         5  mffmem =         1
P  mgfft =        30   mkmem =        60 mpssoang=         3     mpw =      1179
  mqgrid =      3001   natom =         2    nfft =     27000    nkpt =        60
  nloalg =         4  nspden =         1 nspinor =         1  nsppol =         1
    nsym =        48  n1xccc =      2501  ntypat =         1  occopt =         1
================================================================================
P This job should need less than                      14.632 Mbytes of memory.
  Rough estimation (10% accuracy) of disk space for files :
_ WF disk file :      5.399 Mbytes ; DEN or POT disk file :      0.208 Mbytes.
================================================================================


 DATASET   25 : space group Fd -3 m (#227); Bravais cF (face-center cubic)
================================================================================
 Values of the parameters that define the memory need for DATASET 25.
   intxc =         0  ionmov =         0    iscf =         7 xclevel =         1
  lmnmax =         2   lnmax =         2   mband =         5  mffmem =         1
P  mgfft =        30   mkmem =        60 mpssoang=         3     mpw =      1185
  mqgrid =      3001   natom =         2    nfft =     27000    nkpt =        60
  nloalg =         4  nspden =         1 nspinor =         1  nsppol =         1
    nsym =        48  n1xccc =      2501  ntypat =         1  occopt =         1
================================================================================
P This job should need less than                      14.665 Mbytes of memory.
  Rough estimation (10% accuracy) of disk space for files :
_ WF disk file :      5.426 Mbytes ; DEN or POT disk file :      0.208 Mbytes.
================================================================================


 DATASET   26 : space group Fd -3 m (#227); Bravais cF (face-center cubic)
================================================================================
 Values of the parameters that define the memory need for DATASET 26.
   intxc =         0  ionmov =         0    iscf =         7 xclevel =         1
  lmnmax =         2   lnmax =         2   mband =         5  mffmem =         1
P  mgfft =        30   mkmem =        60 mpssoang=         3     mpw =      1203
  mqgrid =      3001   natom =         2    nfft =     27000    nkpt =        60
  nloalg =         4  nspden =         1 nspinor =         1  nsppol =         1
    nsym =        48  n1xccc =      2501  ntypat =         1  occopt =         1
================================================================================
P This job should need less than                      14.765 Mbytes of memory.
  Rough estimation (10% accuracy) of disk space for files :
_ WF disk file :      5.509 Mbytes ; DEN or POT disk file :      0.208 Mbytes.
================================================================================


 DATASET   27 : space group Fd -3 m (#227); Bravais cF (face-center cubic)
================================================================================
 Values of the parameters that define the memory need for DATASET 27.
   intxc =         0  ionmov =         0    iscf =         7 xclevel =         1
  lmnmax =         2   lnmax =         2   mband =         5  mffmem =         1
P  mgfft =        30   mkmem =        60 mpssoang=         3     mpw =      1209
  mqgrid =      3001   natom =         2    nfft =     27000    nkpt =        60
  nloalg =         4  nspden =         1 nspinor =         1  nsppol =         1
    nsym =        48  n1xccc =      2501  ntypat =         1  occopt =         1
================================================================================
P This job should need less than                      14.799 Mbytes of memory.
  Rough estimation (10% accuracy) of disk space for files :
_ WF disk file :      5.536 Mbytes ; DEN or POT disk file :      0.208 Mbytes.
================================================================================


 DATASET   28 : space group Fd -3 m (#227); Bravais cF (face-center cubic)
================================================================================
 Values of the parameters that define the memory need for DATASET 28.
   intxc =         0  ionmov =         0    iscf =         7 xclevel =         1
  lmnmax =         2   lnmax =         2   mband =         5  mffmem =         1
P  mgfft =        30   mkmem =        60 mpssoang=         3     mpw =      1209
  mqgrid =      3001   natom =         2    nfft =     27000    nkpt =        60
  nloalg =         4  nspden =         1 nspinor =         1  nsppol =         1
    nsym =        48  n1xccc =      2501  ntypat =         1  occopt =         1
================================================================================
P This job should need less than                      14.799 Mbytes of memory.
  Rough estimation (10% accuracy) of disk space for files :
_ WF disk file :      5.536 Mbytes ; DEN or POT disk file :      0.208 Mbytes.
================================================================================


 DATASET   29 : space group Fd -3 m (#227); Bravais cF (face-center cubic)
================================================================================
 Values of the parameters that define the memory need for DATASET 29.
   intxc =         0  ionmov =         0    iscf =         7 xclevel =         1
  lmnmax =         2   lnmax =         2   mband =         5  mffmem =         1
P  mgfft =        30   mkmem =        60 mpssoang=         3     mpw =      1218
  mqgrid =      3001   natom =         2    nfft =     27000    nkpt =        60
  nloalg =         4  nspden =         1 nspinor =         1  nsppol =         1
    nsym =        48  n1xccc =      2501  ntypat =         1  occopt =         1
================================================================================
P This job should need less than                      14.849 Mbytes of memory.
  Rough estimation (10% accuracy) of disk space for files :
_ WF disk file :      5.578 Mbytes ; DEN or POT disk file :      0.208 Mbytes.
================================================================================


 DATASET   30 : space group Fd -3 m (#227); Bravais cF (face-center cubic)
================================================================================
 Values of the parameters that define the memory need for DATASET 30.
   intxc =         0  ionmov =         0    iscf =         7 xclevel =         1
  lmnmax =         2   lnmax =         2   mband =         5  mffmem =         1
P  mgfft =        30   mkmem =        60 mpssoang=         3     mpw =      1233
  mqgrid =      3001   natom =         2    nfft =     27000    nkpt =        60
  nloalg =         4  nspden =         1 nspinor =         1  nsppol =         1
    nsym =        48  n1xccc =      2501  ntypat =         1  occopt =         1
================================================================================
P This job should need less than                      14.933 Mbytes of memory.
  Rough estimation (10% accuracy) of disk space for files :
_ WF disk file :      5.646 Mbytes ; DEN or POT disk file :      0.208 Mbytes.
================================================================================


 DATASET   31 : space group Fd -3 m (#227); Bravais cF (face-center cubic)
================================================================================
 Values of the parameters that define the memory need for DATASET 31.
   intxc =         0  ionmov =         0    iscf =         7 xclevel =         1
  lmnmax =         2   lnmax =         2   mband =         5  mffmem =         1
P  mgfft =        30   mkmem =        60 mpssoang=         3     mpw =      1239
  mqgrid =      3001   natom =         2    nfft =     27000    nkpt =        60
  nloalg =         4  nspden =         1 nspinor =         1  nsppol =         1
    nsym =        48  n1xccc =      2501  ntypat =         1  occopt =         1
================================================================================
P This job should need less than                      14.966 Mbytes of memory.
  Rough estimation (10% accuracy) of disk space for files :
_ WF disk file :      5.674 Mbytes ; DEN or POT disk file :      0.208 Mbytes.
================================================================================


 DATASET   32 : space group Fd -3 m (#227); Bravais cF (face-center cubic)
================================================================================
 Values of the parameters that define the memory need for DATASET 32.
   intxc =         0  ionmov =         0    iscf =         7 xclevel =         1
  lmnmax =         2   lnmax =         2   mband =         5  mffmem =         1
P  mgfft =        30   mkmem =        60 mpssoang=         3     mpw =      1242
  mqgrid =      3001   natom =         2    nfft =     27000    nkpt =        60
  nloalg =         4  nspden =         1 nspinor =         1  nsppol =         1
    nsym =        48  n1xccc =      2501  ntypat =         1  occopt =         1
================================================================================
P This job should need less than                      14.983 Mbytes of memory.
  Rough estimation (10% accuracy) of disk space for files :
_ WF disk file :      5.687 Mbytes ; DEN or POT disk file :      0.208 Mbytes.
================================================================================


 DATASET   33 : space group Fd -3 m (#227); Bravais cF (face-center cubic)
================================================================================
 Values of the parameters that define the memory need for DATASET 33.
   intxc =         0  ionmov =         0    iscf =         7 xclevel =         1
  lmnmax =         2   lnmax =         2   mband =         5  mffmem =         1
P  mgfft =        30   mkmem =        60 mpssoang=         3     mpw =      1243
  mqgrid =      3001   natom =         2    nfft =     27000    nkpt =        60
  nloalg =         4  nspden =         1 nspinor =         1  nsppol =         1
    nsym =        48  n1xccc =      2501  ntypat =         1  occopt =         1
================================================================================
P This job should need less than                      14.988 Mbytes of memory.
  Rough estimation (10% accuracy) of disk space for files :
_ WF disk file :      5.692 Mbytes ; DEN or POT disk file :      0.208 Mbytes.
================================================================================


 DATASET   34 : space group Fd -3 m (#227); Bravais cF (face-center cubic)
================================================================================
 Values of the parameters that define the memory need for DATASET 34.
   intxc =         0  ionmov =         0    iscf =         7 xclevel =         1
  lmnmax =         2   lnmax =         2   mband =         5  mffmem =         1
P  mgfft =        30   mkmem =        60 mpssoang=         3     mpw =      1243
  mqgrid =      3001   natom =         2    nfft =     27000    nkpt =        60
  nloalg =         4  nspden =         1 nspinor =         1  nsppol =         1
    nsym =        48  n1xccc =      2501  ntypat =         1  occopt =         1
================================================================================
P This job should need less than                      14.988 Mbytes of memory.
  Rough estimation (10% accuracy) of disk space for files :
_ WF disk file :      5.692 Mbytes ; DEN or POT disk file :      0.208 Mbytes.
================================================================================


 DATASET   35 : space group Fd -3 m (#227); Bravais cF (face-center cubic)
================================================================================
 Values of the parameters that define the memory need for DATASET 35.
   intxc =         0  ionmov =         0    iscf =         7 xclevel =         1
  lmnmax =         2   lnmax =         2   mband =         5  mffmem =         1
P  mgfft =        30   mkmem =        60 mpssoang=         3     mpw =      1244
  mqgrid =      3001   natom =         2    nfft =     27000    nkpt =        60
  nloalg =         4  nspden =         1 nspinor =         1  nsppol =         1
    nsym =        48  n1xccc =      2501  ntypat =         1  occopt =         1
================================================================================
P This job should need less than                      14.994 Mbytes of memory.
  Rough estimation (10% accuracy) of disk space for files :
_ WF disk file :      5.697 Mbytes ; DEN or POT disk file :      0.208 Mbytes.
================================================================================


 DATASET   36 : space group Fd -3 m (#227); Bravais cF (face-center cubic)
================================================================================
 Values of the parameters that define the memory need for DATASET 36.
   intxc =         0  ionmov =         0    iscf =         7 xclevel =         1
  lmnmax =         2   lnmax =         2   mband =         5  mffmem =         1
P  mgfft =        30   mkmem =        60 mpssoang=         3     mpw =      1253
  mqgrid =      3001   natom =         2    nfft =     27000    nkpt =        60
  nloalg =         4  nspden =         1 nspinor =         1  nsppol =         1
    nsym =        48  n1xccc =      2501  ntypat =         1  occopt =         1
================================================================================
P This job should need less than                      15.044 Mbytes of memory.
  Rough estimation (10% accuracy) of disk space for files :
_ WF disk file :      5.738 Mbytes ; DEN or POT disk file :      0.208 Mbytes.
================================================================================


 DATASET   37 : space group Fd -3 m (#227); Bravais cF (face-center cubic)
================================================================================
 Values of the parameters that define the memory need for DATASET 37.
   intxc =         0  ionmov =         0    iscf =         7 xclevel =         1
  lmnmax =         2   lnmax =         2   mband =         5  mffmem =         1
P  mgfft =        30   mkmem =        60 mpssoang=         3     mpw =      1260
  mqgrid =      3001   natom =         2    nfft =     27000    nkpt =        60
  nloalg =         4  nspden =         1 nspinor =         1  nsppol =         1
    nsym =        48  n1xccc =      2501  ntypat =         1  occopt =         1
================================================================================
P This job should need less than                      15.083 Mbytes of memory.
  Rough estimation (10% accuracy) of disk space for files :
_ WF disk file :      5.770 Mbytes ; DEN or POT disk file :      0.208 Mbytes.
================================================================================


 DATASET   38 : space group Fd -3 m (#227); Bravais cF (face-center cubic)
================================================================================
 Values of the parameters that define the memory need for DATASET 38.
   intxc =         0  ionmov =         0    iscf =         7 xclevel =         1
  lmnmax =         2   lnmax =         2   mband =         5  mffmem =         1
P  mgfft =        30   mkmem =        60 mpssoang=         3     mpw =      1268
  mqgrid =      3001   natom =         2    nfft =     27000    nkpt =        60
  nloalg =         4  nspden =         1 nspinor =         1  nsppol =         1
    nsym =        48  n1xccc =      2501  ntypat =         1  occopt =         1
================================================================================
P This job should need less than                      15.128 Mbytes of memory.
  Rough estimation (10% accuracy) of disk space for files :
_ WF disk file :      5.806 Mbytes ; DEN or POT disk file :      0.208 Mbytes.
================================================================================


 DATASET   39 : space group Fd -3 m (#227); Bravais cF (face-center cubic)
================================================================================
 Values of the parameters that define the memory need for DATASET 39.
   intxc =         0  ionmov =         0    iscf =         7 xclevel =         1
  lmnmax =         2   lnmax =         2   mband =         5  mffmem =         1
P  mgfft =        32   mkmem =        60 mpssoang=         3     mpw =      1278
  mqgrid =      3001   natom =         2    nfft =     32768    nkpt =        60
  nloalg =         4  nspden =         1 nspinor =         1  nsppol =         1
    nsym =        48  n1xccc =      2501  ntypat =         1  occopt =         1
================================================================================
P This job should need less than                      16.776 Mbytes of memory.
  Rough estimation (10% accuracy) of disk space for files :
_ WF disk file :      5.852 Mbytes ; DEN or POT disk file :      0.252 Mbytes.
================================================================================


 DATASET   40 : space group Fd -3 m (#227); Bravais cF (face-center cubic)
================================================================================
 Values of the parameters that define the memory need for DATASET 40.
   intxc =         0  ionmov =         0    iscf =         7 xclevel =         1
  lmnmax =         2   lnmax =         2   mband =         5  mffmem =         1
P  mgfft =        32   mkmem =        60 mpssoang=         3     mpw =      1283
  mqgrid =      3001   natom =         2    nfft =     32768    nkpt =        60
  nloalg =         4  nspden =         1 nspinor =         1  nsppol =         1
    nsym =        48  n1xccc =      2501  ntypat =         1  occopt =         1
================================================================================
P This job should need less than                      16.804 Mbytes of memory.
  Rough estimation (10% accuracy) of disk space for files :
_ WF disk file :      5.875 Mbytes ; DEN or POT disk file :      0.252 Mbytes.
================================================================================


 DATASET   41 : space group Fd -3 m (#227); Bravais cF (face-center cubic)
================================================================================
 Values of the parameters that define the memory need for DATASET 41.
   intxc =         0  ionmov =         0    iscf =         7 xclevel =         1
  lmnmax =         2   lnmax =         2   mband =         5  mffmem =         1
P  mgfft =        32   mkmem =        60 mpssoang=         3     mpw =      1290
  mqgrid =      3001   natom =         2    nfft =     32768    nkpt =        60
  nloalg =         4  nspden =         1 nspinor =         1  nsppol =         1
    nsym =        48  n1xccc =      2501  ntypat =         1  occopt =         1
================================================================================
P This job should need less than                      16.843 Mbytes of memory.
  Rough estimation (10% accuracy) of disk space for files :
_ WF disk file :      5.907 Mbytes ; DEN or POT disk file :      0.252 Mbytes.
================================================================================

--------------------------------------------------------------------------------
------------- Echo of variables that govern the present computation ------------
--------------------------------------------------------------------------------
-
- outvars: echo of selected default values                                      
-   accesswff0 =  0 , fftalg0 =312 , wfoptalg0 =  0
-
- outvars: echo of global parameters not present in the input file              
-  max_nthreads =    1
-
 -outvars: echo values of preprocessed input variables --------
            acell1     9.8000000000E+00  9.8000000000E+00  9.8000000000E+00 Bohr
            acell2     9.8200000000E+00  9.8200000000E+00  9.8200000000E+00 Bohr
            acell3     9.8400000000E+00  9.8400000000E+00  9.8400000000E+00 Bohr
            acell4     9.8600000000E+00  9.8600000000E+00  9.8600000000E+00 Bohr
            acell5     9.8800000000E+00  9.8800000000E+00  9.8800000000E+00 Bohr
            acell6     9.9000000000E+00  9.9000000000E+00  9.9000000000E+00 Bohr
            acell7     9.9200000000E+00  9.9200000000E+00  9.9200000000E+00 Bohr
            acell8     9.9400000000E+00  9.9400000000E+00  9.9400000000E+00 Bohr
            acell9     9.9600000000E+00  9.9600000000E+00  9.9600000000E+00 Bohr
            acell10    9.9800000000E+00  9.9800000000E+00  9.9800000000E+00 Bohr
            acell11    1.0000000000E+01  1.0000000000E+01  1.0000000000E+01 Bohr
            acell12    1.0020000000E+01  1.0020000000E+01  1.0020000000E+01 Bohr
            acell13    1.0040000000E+01  1.0040000000E+01  1.0040000000E+01 Bohr
            acell14    1.0060000000E+01  1.0060000000E+01  1.0060000000E+01 Bohr
            acell15    1.0080000000E+01  1.0080000000E+01  1.0080000000E+01 Bohr
            acell16    1.0100000000E+01  1.0100000000E+01  1.0100000000E+01 Bohr
            acell17    1.0120000000E+01  1.0120000000E+01  1.0120000000E+01 Bohr
            acell18    1.0140000000E+01  1.0140000000E+01  1.0140000000E+01 Bohr
            acell19    1.0160000000E+01  1.0160000000E+01  1.0160000000E+01 Bohr
            acell20    1.0180000000E+01  1.0180000000E+01  1.0180000000E+01 Bohr
            acell21    1.0200000000E+01  1.0200000000E+01  1.0200000000E+01 Bohr
            acell22    1.0220000000E+01  1.0220000000E+01  1.0220000000E+01 Bohr
            acell23    1.0240000000E+01  1.0240000000E+01  1.0240000000E+01 Bohr
            acell24    1.0260000000E+01  1.0260000000E+01  1.0260000000E+01 Bohr
            acell25    1.0280000000E+01  1.0280000000E+01  1.0280000000E+01 Bohr
            acell26    1.0300000000E+01  1.0300000000E+01  1.0300000000E+01 Bohr
            acell27    1.0320000000E+01  1.0320000000E+01  1.0320000000E+01 Bohr
            acell28    1.0340000000E+01  1.0340000000E+01  1.0340000000E+01 Bohr
            acell29    1.0360000000E+01  1.0360000000E+01  1.0360000000E+01 Bohr
            acell30    1.0380000000E+01  1.0380000000E+01  1.0380000000E+01 Bohr
            acell31    1.0400000000E+01  1.0400000000E+01  1.0400000000E+01 Bohr
            acell32    1.0420000000E+01  1.0420000000E+01  1.0420000000E+01 Bohr
            acell33    1.0440000000E+01  1.0440000000E+01  1.0440000000E+01 Bohr
            acell34    1.0460000000E+01  1.0460000000E+01  1.0460000000E+01 Bohr
            acell35    1.0480000000E+01  1.0480000000E+01  1.0480000000E+01 Bohr
            acell36    1.0500000000E+01  1.0500000000E+01  1.0500000000E+01 Bohr
            acell37    1.0520000000E+01  1.0520000000E+01  1.0520000000E+01 Bohr
            acell38    1.0540000000E+01  1.0540000000E+01  1.0540000000E+01 Bohr
            acell39    1.0560000000E+01  1.0560000000E+01  1.0560000000E+01 Bohr
            acell40    1.0580000000E+01  1.0580000000E+01  1.0580000000E+01 Bohr
            acell41    1.0600000000E+01  1.0600000000E+01  1.0600000000E+01 Bohr
              amu      2.80855000E+01
           diemac      1.20000000E+01
             ecut      2.00000000E+01 Hartree
           jdtset        1    2    3    4    5    6    7    8    9   10
                        11   12   13   14   15   16   17   18   19   20
                        21   22   23   24   25   26   27   28   29   30
                        31   32   33   34   35   36   37   38   39   40
                        41
              kpt     -6.25000000E-02 -1.25000000E-01  0.00000000E+00
                      -6.25000000E-02 -2.50000000E-01  0.00000000E+00
                      -1.25000000E-01 -1.87500000E-01  0.00000000E+00
                      -6.25000000E-02 -1.87500000E-01  6.25000000E-02
                      -6.25000000E-02 -3.75000000E-01  0.00000000E+00
                      -1.25000000E-01 -3.12500000E-01  0.00000000E+00
                      -6.25000000E-02 -3.12500000E-01  6.25000000E-02
                      -1.87500000E-01 -2.50000000E-01  0.00000000E+00
                      -1.25000000E-01 -2.50000000E-01  6.25000000E-02
                      -6.25000000E-02 -2.50000000E-01  1.25000000E-01
                      -6.25000000E-02  5.00000000E-01  0.00000000E+00
                      -1.25000000E-01 -4.37500000E-01  0.00000000E+00
                      -6.25000000E-02 -4.37500000E-01  6.25000000E-02
                      -1.87500000E-01 -3.75000000E-01  0.00000000E+00
                      -1.25000000E-01 -3.75000000E-01  6.25000000E-02
                      -6.25000000E-02 -3.75000000E-01  1.25000000E-01
                      -2.50000000E-01 -3.12500000E-01  0.00000000E+00
                      -1.87500000E-01 -3.12500000E-01  6.25000000E-02
                      -1.25000000E-01 -3.12500000E-01  1.25000000E-01
                      -6.25000000E-02 -3.12500000E-01  1.87500000E-01
                      -6.25000000E-02  3.75000000E-01  0.00000000E+00
                      -1.25000000E-01  4.37500000E-01  0.00000000E+00
                      -1.87500000E-01  5.00000000E-01  0.00000000E+00
                      -1.25000000E-01  5.00000000E-01  6.25000000E-02
                      -2.50000000E-01 -4.37500000E-01  0.00000000E+00
                      -1.87500000E-01 -4.37500000E-01  6.25000000E-02
                      -1.25000000E-01 -4.37500000E-01  1.25000000E-01
                      -6.25000000E-02 -4.37500000E-01  1.87500000E-01
                      -3.12500000E-01 -3.75000000E-01  0.00000000E+00
                      -2.50000000E-01 -3.75000000E-01  6.25000000E-02
                      -1.87500000E-01 -3.75000000E-01  1.25000000E-01
                      -1.25000000E-01 -3.75000000E-01  1.87500000E-01
                      -6.25000000E-02 -3.75000000E-01  2.50000000E-01
                      -6.25000000E-02  2.50000000E-01  0.00000000E+00
                      -1.25000000E-01  3.12500000E-01  0.00000000E+00
                      -1.87500000E-01  3.75000000E-01  0.00000000E+00
                      -2.50000000E-01  4.37500000E-01  0.00000000E+00
                      -3.12500000E-01  5.00000000E-01  0.00000000E+00
                      -2.50000000E-01  5.00000000E-01  6.25000000E-02
                      -1.87500000E-01  5.00000000E-01  1.25000000E-01
                      -3.75000000E-01 -4.37500000E-01  0.00000000E+00
                      -3.12500000E-01 -4.37500000E-01  6.25000000E-02
                      -2.50000000E-01 -4.37500000E-01  1.25000000E-01
                      -1.87500000E-01 -4.37500000E-01  1.87500000E-01
                      -1.25000000E-01 -4.37500000E-01  2.50000000E-01
                      -6.25000000E-02 -4.37500000E-01  3.12500000E-01
                      -6.25000000E-02  1.25000000E-01  0.00000000E+00
                      -1.25000000E-01  1.87500000E-01  0.00000000E+00
                      -1.87500000E-01  2.50000000E-01  0.00000000E+00
                      -2.50000000E-01  3.12500000E-01  0.00000000E+00
                       outvar_i_n : Printing only first  50 k-points.
         kptrlatt        8   -8    8     -8    8    8     -8   -8    8
          kptrlen1     7.84000000E+01
          kptrlen2     7.85600000E+01
          kptrlen3     7.87200000E+01
          kptrlen4     7.88800000E+01
          kptrlen5     7.90400000E+01
          kptrlen6     7.92000000E+01
          kptrlen7     7.93600000E+01
          kptrlen8     7.95200000E+01
          kptrlen9     7.96800000E+01
          kptrlen10    7.98400000E+01
          kptrlen11    8.00000000E+01
          kptrlen12    8.01600000E+01
          kptrlen13    8.03200000E+01
          kptrlen14    8.04800000E+01
          kptrlen15    8.06400000E+01
          kptrlen16    8.08000000E+01
          kptrlen17    8.09600000E+01
          kptrlen18    8.11200000E+01
          kptrlen19    8.12800000E+01
          kptrlen20    8.14400000E+01
          kptrlen21    8.16000000E+01
          kptrlen22    8.17600000E+01
          kptrlen23    8.19200000E+01
          kptrlen24    8.20800000E+01
          kptrlen25    8.22400000E+01
          kptrlen26    8.24000000E+01
          kptrlen27    8.25600000E+01
          kptrlen28    8.27200000E+01
          kptrlen29    8.28800000E+01
          kptrlen30    8.30400000E+01
          kptrlen31    8.32000000E+01
          kptrlen32    8.33600000E+01
          kptrlen33    8.35200000E+01
          kptrlen34    8.36800000E+01
          kptrlen35    8.38400000E+01
          kptrlen36    8.40000000E+01
          kptrlen37    8.41600000E+01
          kptrlen38    8.43200000E+01
          kptrlen39    8.44800000E+01
          kptrlen40    8.46400000E+01
          kptrlen41    8.48000000E+01
P           mkmem          60
            natom           2
            nband           5
           ndtset          41
            ngfft1         30      30      30
            ngfft2         30      30      30
            ngfft3         30      30      30
            ngfft4         30      30      30
            ngfft5         30      30      30
            ngfft6         30      30      30
            ngfft7         30      30      30
            ngfft8         30      30      30
            ngfft9         30      30      30
            ngfft10        30      30      30
            ngfft11        30      30      30
            ngfft12        30      30      30
            ngfft13        30      30      30
            ngfft14        30      30      30
            ngfft15        30      30      30
            ngfft16        30      30      30
            ngfft17        30      30      30
            ngfft18        30      30      30
            ngfft19        30      30      30
            ngfft20        30      30      30
            ngfft21        30      30      30
            ngfft22        30      30      30
            ngfft23        30      30      30
            ngfft24        30      30      30
            ngfft25        30      30      30
            ngfft26        30      30      30
            ngfft27        30      30      30
            ngfft28        30      30      30
            ngfft29        30      30      30
            ngfft30        30      30      30
            ngfft31        30      30      30
            ngfft32        30      30      30
            ngfft33        30      30      30
            ngfft34        30      30      30
            ngfft35        30      30      30
            ngfft36        30      30      30
            ngfft37        30      30      30
            ngfft38        30      30      30
            ngfft39        32      32      32
            ngfft40        32      32      32
            ngfft41        32      32      32
             nkpt          60
            nstep          25
             nsym          48
           ntypat           1
              occ      2.000000  2.000000  2.000000  2.000000  0.000000
        optforces           1
           prtden           0
           prteig           0
            prtwf           0
            rprim      0.0000000000E+00  5.0000000000E-01  5.0000000000E-01
                       5.0000000000E-01  0.0000000000E+00  5.0000000000E-01
                       5.0000000000E-01  5.0000000000E-01  0.0000000000E+00
           shiftk      5.00000000E-01  5.00000000E-01  5.00000000E-01
          spgroup         227
           symrel      1  0  0   0  1  0   0  0  1      -1  0  0   0 -1  0   0  0 -1
                       0 -1  1   0 -1  0   1 -1  0       0  1 -1   0  1  0  -1  1  0
                      -1  0  0  -1  0  1  -1  1  0       1  0  0   1  0 -1   1 -1  0
                       0  1 -1   1  0 -1   0  0 -1       0 -1  1  -1  0  1   0  0  1
                      -1  0  0  -1  1  0  -1  0  1       1  0  0   1 -1  0   1  0 -1
                       0 -1  1   1 -1  0   0 -1  0       0  1 -1  -1  1  0   0  1  0
                       1  0  0   0  0  1   0  1  0      -1  0  0   0  0 -1   0 -1  0
                       0  1 -1   0  0 -1   1  0 -1       0 -1  1   0  0  1  -1  0  1
                      -1  0  1  -1  1  0  -1  0  0       1  0 -1   1 -1  0   1  0  0
                       0 -1  0   1 -1  0   0 -1  1       0  1  0  -1  1  0   0  1 -1
                       1  0 -1   0  0 -1   0  1 -1      -1  0  1   0  0  1   0 -1  1
                       0  1  0   0  0  1   1  0  0       0 -1  0   0  0 -1  -1  0  0
                       1  0 -1   0  1 -1   0  0 -1      -1  0  1   0 -1  1   0  0  1
                       0 -1  0   0 -1  1   1 -1  0       0  1  0   0  1 -1  -1  1  0
                      -1  0  1  -1  0  0  -1  1  0       1  0 -1   1  0  0   1 -1  0
                       0  1  0   1  0  0   0  0  1       0 -1  0  -1  0  0   0  0 -1
                       0  0 -1   0  1 -1   1  0 -1       0  0  1   0 -1  1  -1  0  1
                       1 -1  0   0 -1  1   0 -1  0      -1  1  0   0  1 -1   0  1  0
                       0  0  1   1  0  0   0  1  0       0  0 -1  -1  0  0   0 -1  0
                      -1  1  0  -1  0  0  -1  0  1       1 -1  0   1  0  0   1  0 -1
                       0  0  1   0  1  0   1  0  0       0  0 -1   0 -1  0  -1  0  0
                       1 -1  0   0 -1  0   0 -1  1      -1  1  0   0  1  0   0  1 -1
                       0  0 -1   1  0 -1   0  1 -1       0  0  1  -1  0  1   0 -1  1
                      -1  1  0  -1  0  1  -1  0  0       1 -1  0   1  0 -1   1  0  0
            tnons      0.0000000  0.0000000  0.0000000     0.2500000  0.2500000  0.2500000
                       0.0000000  0.0000000  0.0000000     0.2500000  0.2500000  0.2500000
                       0.0000000  0.0000000  0.0000000     0.2500000  0.2500000  0.2500000
                       0.0000000  0.0000000  0.0000000     0.2500000  0.2500000  0.2500000
                       0.0000000  0.0000000  0.0000000     0.2500000  0.2500000  0.2500000
                       0.0000000  0.0000000  0.0000000     0.2500000  0.2500000  0.2500000
                       0.0000000  0.0000000  0.0000000     0.2500000  0.2500000  0.2500000
                       0.0000000  0.0000000  0.0000000     0.2500000  0.2500000  0.2500000
                       0.0000000  0.0000000  0.0000000     0.2500000  0.2500000  0.2500000
                       0.0000000  0.0000000  0.0000000     0.2500000  0.2500000  0.2500000
                       0.0000000  0.0000000  0.0000000     0.2500000  0.2500000  0.2500000
                       0.0000000  0.0000000  0.0000000     0.2500000  0.2500000  0.2500000
                       0.0000000  0.0000000  0.0000000     0.2500000  0.2500000  0.2500000
                       0.0000000  0.0000000  0.0000000     0.2500000  0.2500000  0.2500000
                       0.0000000  0.0000000  0.0000000     0.2500000  0.2500000  0.2500000
                       0.0000000  0.0000000  0.0000000     0.2500000  0.2500000  0.2500000
                       0.0000000  0.0000000  0.0000000     0.2500000  0.2500000  0.2500000
                       0.0000000  0.0000000  0.0000000     0.2500000  0.2500000  0.2500000
                       0.0000000  0.0000000  0.0000000     0.2500000  0.2500000  0.2500000
                       0.0000000  0.0000000  0.0000000     0.2500000  0.2500000  0.2500000
                       0.0000000  0.0000000  0.0000000     0.2500000  0.2500000  0.2500000
                       0.0000000  0.0000000  0.0000000     0.2500000  0.2500000  0.2500000
                       0.0000000  0.0000000  0.0000000     0.2500000  0.2500000  0.2500000
                       0.0000000  0.0000000  0.0000000     0.2500000  0.2500000  0.2500000
           toldfe      1.00000000E-10 Hartree
            typat      1  1
              wtk        0.01172    0.01172    0.01172    0.02344    0.01172    0.01172
                         0.02344    0.01172    0.02344    0.02344    0.01172    0.01172
                         0.02344    0.01172    0.02344    0.02344    0.01172    0.02344
                         0.02344    0.02344    0.01172    0.01172    0.01172    0.02344
                         0.01172    0.02344    0.02344    0.02344    0.01172    0.02344
                         0.02344    0.02344    0.02344    0.01172    0.01172    0.01172
                         0.01172    0.01172    0.02344    0.02344    0.01172    0.02344
                         0.02344    0.02344    0.02344    0.02344    0.01172    0.01172
                         0.01172    0.01172
                       outvars : Printing only first  50 k-points.
           xangst1     0.0000000000E+00  0.0000000000E+00  0.0000000000E+00
                       1.2964841610E+00  1.2964841610E+00  1.2964841610E+00
           xangst2     0.0000000000E+00  0.0000000000E+00  0.0000000000E+00
                       1.2991300471E+00  1.2991300471E+00  1.2991300471E+00
           xangst3     0.0000000000E+00  0.0000000000E+00  0.0000000000E+00
                       1.3017759331E+00  1.3017759331E+00  1.3017759331E+00
           xangst4     0.0000000000E+00  0.0000000000E+00  0.0000000000E+00
                       1.3044218192E+00  1.3044218192E+00  1.3044218192E+00
           xangst5     0.0000000000E+00  0.0000000000E+00  0.0000000000E+00
                       1.3070677052E+00  1.3070677052E+00  1.3070677052E+00
           xangst6     0.0000000000E+00  0.0000000000E+00  0.0000000000E+00
                       1.3097135913E+00  1.3097135913E+00  1.3097135913E+00
           xangst7     0.0000000000E+00  0.0000000000E+00  0.0000000000E+00
                       1.3123594773E+00  1.3123594773E+00  1.3123594773E+00
           xangst8     0.0000000000E+00  0.0000000000E+00  0.0000000000E+00
                       1.3150053633E+00  1.3150053633E+00  1.3150053633E+00
           xangst9     0.0000000000E+00  0.0000000000E+00  0.0000000000E+00
                       1.3176512494E+00  1.3176512494E+00  1.3176512494E+00
           xangst10    0.0000000000E+00  0.0000000000E+00  0.0000000000E+00
                       1.3202971354E+00  1.3202971354E+00  1.3202971354E+00
           xangst11    0.0000000000E+00  0.0000000000E+00  0.0000000000E+00
                       1.3229430215E+00  1.3229430215E+00  1.3229430215E+00
           xangst12    0.0000000000E+00  0.0000000000E+00  0.0000000000E+00
                       1.3255889075E+00  1.3255889075E+00  1.3255889075E+00
           xangst13    0.0000000000E+00  0.0000000000E+00  0.0000000000E+00
                       1.3282347936E+00  1.3282347936E+00  1.3282347936E+00
           xangst14    0.0000000000E+00  0.0000000000E+00  0.0000000000E+00
                       1.3308806796E+00  1.3308806796E+00  1.3308806796E+00
           xangst15    0.0000000000E+00  0.0000000000E+00  0.0000000000E+00
                       1.3335265656E+00  1.3335265656E+00  1.3335265656E+00
           xangst16    0.0000000000E+00  0.0000000000E+00  0.0000000000E+00
                       1.3361724517E+00  1.3361724517E+00  1.3361724517E+00
           xangst17    0.0000000000E+00  0.0000000000E+00  0.0000000000E+00
                       1.3388183377E+00  1.3388183377E+00  1.3388183377E+00
           xangst18    0.0000000000E+00  0.0000000000E+00  0.0000000000E+00
                       1.3414642238E+00  1.3414642238E+00  1.3414642238E+00
           xangst19    0.0000000000E+00  0.0000000000E+00  0.0000000000E+00
                       1.3441101098E+00  1.3441101098E+00  1.3441101098E+00
           xangst20    0.0000000000E+00  0.0000000000E+00  0.0000000000E+00
                       1.3467559959E+00  1.3467559959E+00  1.3467559959E+00
           xangst21    0.0000000000E+00  0.0000000000E+00  0.0000000000E+00
                       1.3494018819E+00  1.3494018819E+00  1.3494018819E+00
           xangst22    0.0000000000E+00  0.0000000000E+00  0.0000000000E+00
                       1.3520477679E+00  1.3520477679E+00  1.3520477679E+00
           xangst23    0.0000000000E+00  0.0000000000E+00  0.0000000000E+00
                       1.3546936540E+00  1.3546936540E+00  1.3546936540E+00
           xangst24    0.0000000000E+00  0.0000000000E+00  0.0000000000E+00
                       1.3573395400E+00  1.3573395400E+00  1.3573395400E+00
           xangst25    0.0000000000E+00  0.0000000000E+00  0.0000000000E+00
                       1.3599854261E+00  1.3599854261E+00  1.3599854261E+00
           xangst26    0.0000000000E+00  0.0000000000E+00  0.0000000000E+00
                       1.3626313121E+00  1.3626313121E+00  1.3626313121E+00
           xangst27    0.0000000000E+00  0.0000000000E+00  0.0000000000E+00
                       1.3652771982E+00  1.3652771982E+00  1.3652771982E+00
           xangst28    0.0000000000E+00  0.0000000000E+00  0.0000000000E+00
                       1.3679230842E+00  1.3679230842E+00  1.3679230842E+00
           xangst29    0.0000000000E+00  0.0000000000E+00  0.0000000000E+00
                       1.3705689702E+00  1.3705689702E+00  1.3705689702E+00
           xangst30    0.0000000000E+00  0.0000000000E+00  0.0000000000E+00
                       1.3732148563E+00  1.3732148563E+00  1.3732148563E+00
           xangst31    0.0000000000E+00  0.0000000000E+00  0.0000000000E+00
                       1.3758607423E+00  1.3758607423E+00  1.3758607423E+00
           xangst32    0.0000000000E+00  0.0000000000E+00  0.0000000000E+00
                       1.3785066284E+00  1.3785066284E+00  1.3785066284E+00
           xangst33    0.0000000000E+00  0.0000000000E+00  0.0000000000E+00
                       1.3811525144E+00  1.3811525144E+00  1.3811525144E+00
           xangst34    0.0000000000E+00  0.0000000000E+00  0.0000000000E+00
                       1.3837984005E+00  1.3837984005E+00  1.3837984005E+00
           xangst35    0.0000000000E+00  0.0000000000E+00  0.0000000000E+00
                       1.3864442865E+00  1.3864442865E+00  1.3864442865E+00
           xangst36    0.0000000000E+00  0.0000000000E+00  0.0000000000E+00
                       1.3890901725E+00  1.3890901725E+00  1.3890901725E+00
           xangst37    0.0000000000E+00  0.0000000000E+00  0.0000000000E+00
                       1.3917360586E+00  1.3917360586E+00  1.3917360586E+00
           xangst38    0.0000000000E+00  0.0000000000E+00  0.0000000000E+00
                       1.3943819446E+00  1.3943819446E+00  1.3943819446E+00
           xangst39    0.0000000000E+00  0.0000000000E+00  0.0000000000E+00
                       1.3970278307E+00  1.3970278307E+00  1.3970278307E+00
           xangst40    0.0000000000E+00  0.0000000000E+00  0.0000000000E+00
                       1.3996737167E+00  1.3996737167E+00  1.3996737167E+00
           xangst41    0.0000000000E+00  0.0000000000E+00  0.0000000000E+00
                       1.4023196028E+00  1.4023196028E+00  1.4023196028E+00
            xcart1     0.0000000000E+00  0.0000000000E+00  0.0000000000E+00
                       2.4500000000E+00  2.4500000000E+00  2.4500000000E+00
            xcart2     0.0000000000E+00  0.0000000000E+00  0.0000000000E+00
                       2.4550000000E+00  2.4550000000E+00  2.4550000000E+00
            xcart3     0.0000000000E+00  0.0000000000E+00  0.0000000000E+00
                       2.4600000000E+00  2.4600000000E+00  2.4600000000E+00
            xcart4     0.0000000000E+00  0.0000000000E+00  0.0000000000E+00
                       2.4650000000E+00  2.4650000000E+00  2.4650000000E+00
            xcart5     0.0000000000E+00  0.0000000000E+00  0.0000000000E+00
                       2.4700000000E+00  2.4700000000E+00  2.4700000000E+00
            xcart6     0.0000000000E+00  0.0000000000E+00  0.0000000000E+00
                       2.4750000000E+00  2.4750000000E+00  2.4750000000E+00
            xcart7     0.0000000000E+00  0.0000000000E+00  0.0000000000E+00
                       2.4800000000E+00  2.4800000000E+00  2.4800000000E+00
            xcart8     0.0000000000E+00  0.0000000000E+00  0.0000000000E+00
                       2.4850000000E+00  2.4850000000E+00  2.4850000000E+00
            xcart9     0.0000000000E+00  0.0000000000E+00  0.0000000000E+00
                       2.4900000000E+00  2.4900000000E+00  2.4900000000E+00
            xcart10    0.0000000000E+00  0.0000000000E+00  0.0000000000E+00
                       2.4950000000E+00  2.4950000000E+00  2.4950000000E+00
            xcart11    0.0000000000E+00  0.0000000000E+00  0.0000000000E+00
                       2.5000000000E+00  2.5000000000E+00  2.5000000000E+00
            xcart12    0.0000000000E+00  0.0000000000E+00  0.0000000000E+00
                       2.5050000000E+00  2.5050000000E+00  2.5050000000E+00
            xcart13    0.0000000000E+00  0.0000000000E+00  0.0000000000E+00
                       2.5100000000E+00  2.5100000000E+00  2.5100000000E+00
            xcart14    0.0000000000E+00  0.0000000000E+00  0.0000000000E+00
                       2.5150000000E+00  2.5150000000E+00  2.5150000000E+00
            xcart15    0.0000000000E+00  0.0000000000E+00  0.0000000000E+00
                       2.5200000000E+00  2.5200000000E+00  2.5200000000E+00
            xcart16    0.0000000000E+00  0.0000000000E+00  0.0000000000E+00
                       2.5250000000E+00  2.5250000000E+00  2.5250000000E+00
            xcart17    0.0000000000E+00  0.0000000000E+00  0.0000000000E+00
                       2.5300000000E+00  2.5300000000E+00  2.5300000000E+00
            xcart18    0.0000000000E+00  0.0000000000E+00  0.0000000000E+00
                       2.5350000000E+00  2.5350000000E+00  2.5350000000E+00
            xcart19    0.0000000000E+00  0.0000000000E+00  0.0000000000E+00
                       2.5400000000E+00  2.5400000000E+00  2.5400000000E+00
            xcart20    0.0000000000E+00  0.0000000000E+00  0.0000000000E+00
                       2.5450000000E+00  2.5450000000E+00  2.5450000000E+00
            xcart21    0.0000000000E+00  0.0000000000E+00  0.0000000000E+00
                       2.5500000000E+00  2.5500000000E+00  2.5500000000E+00
            xcart22    0.0000000000E+00  0.0000000000E+00  0.0000000000E+00
                       2.5550000000E+00  2.5550000000E+00  2.5550000000E+00
            xcart23    0.0000000000E+00  0.0000000000E+00  0.0000000000E+00
                       2.5600000000E+00  2.5600000000E+00  2.5600000000E+00
            xcart24    0.0000000000E+00  0.0000000000E+00  0.0000000000E+00
                       2.5650000000E+00  2.5650000000E+00  2.5650000000E+00
            xcart25    0.0000000000E+00  0.0000000000E+00  0.0000000000E+00
                       2.5700000000E+00  2.5700000000E+00  2.5700000000E+00
            xcart26    0.0000000000E+00  0.0000000000E+00  0.0000000000E+00
                       2.5750000000E+00  2.5750000000E+00  2.5750000000E+00
            xcart27    0.0000000000E+00  0.0000000000E+00  0.0000000000E+00
                       2.5800000000E+00  2.5800000000E+00  2.5800000000E+00
            xcart28    0.0000000000E+00  0.0000000000E+00  0.0000000000E+00
                       2.5850000000E+00  2.5850000000E+00  2.5850000000E+00
            xcart29    0.0000000000E+00  0.0000000000E+00  0.0000000000E+00
                       2.5900000000E+00  2.5900000000E+00  2.5900000000E+00
            xcart30    0.0000000000E+00  0.0000000000E+00  0.0000000000E+00
                       2.5950000000E+00  2.5950000000E+00  2.5950000000E+00
            xcart31    0.0000000000E+00  0.0000000000E+00  0.0000000000E+00
                       2.6000000000E+00  2.6000000000E+00  2.6000000000E+00
            xcart32    0.0000000000E+00  0.0000000000E+00  0.0000000000E+00
                       2.6050000000E+00  2.6050000000E+00  2.6050000000E+00
            xcart33    0.0000000000E+00  0.0000000000E+00  0.0000000000E+00
                       2.6100000000E+00  2.6100000000E+00  2.6100000000E+00
            xcart34    0.0000000000E+00  0.0000000000E+00  0.0000000000E+00
                       2.6150000000E+00  2.6150000000E+00  2.6150000000E+00
            xcart35    0.0000000000E+00  0.0000000000E+00  0.0000000000E+00
                       2.6200000000E+00  2.6200000000E+00  2.6200000000E+00
            xcart36    0.0000000000E+00  0.0000000000E+00  0.0000000000E+00
                       2.6250000000E+00  2.6250000000E+00  2.6250000000E+00
            xcart37    0.0000000000E+00  0.0000000000E+00  0.0000000000E+00
                       2.6300000000E+00  2.6300000000E+00  2.6300000000E+00
            xcart38    0.0000000000E+00  0.0000000000E+00  0.0000000000E+00
                       2.6350000000E+00  2.6350000000E+00  2.6350000000E+00
            xcart39    0.0000000000E+00  0.0000000000E+00  0.0000000000E+00
                       2.6400000000E+00  2.6400000000E+00  2.6400000000E+00
            xcart40    0.0000000000E+00  0.0000000000E+00  0.0000000000E+00
                       2.6450000000E+00  2.6450000000E+00  2.6450000000E+00
            xcart41    0.0000000000E+00  0.0000000000E+00  0.0000000000E+00
                       2.6500000000E+00  2.6500000000E+00  2.6500000000E+00
             xred      0.0000000000E+00  0.0000000000E+00  0.0000000000E+00
                       2.5000000000E-01  2.5000000000E-01  2.5000000000E-01
            znucl       14.00000

================================================================================

 chkinp: Checking input parameters for consistency, jdtset=   1.

 chkinp: Checking input parameters for consistency, jdtset=   2.

 chkinp: Checking input parameters for consistency, jdtset=   3.

 chkinp: Checking input parameters for consistency, jdtset=   4.

 chkinp: Checking input parameters for consistency, jdtset=   5.

 chkinp: Checking input parameters for consistency, jdtset=   6.

 chkinp: Checking input parameters for consistency, jdtset=   7.

 chkinp: Checking input parameters for consistency, jdtset=   8.

 chkinp: Checking input parameters for consistency, jdtset=   9.

 chkinp: Checking input parameters for consistency, jdtset=  10.

 chkinp: Checking input parameters for consistency, jdtset=  11.

 chkinp: Checking input parameters for consistency, jdtset=  12.

 chkinp: Checking input parameters for consistency, jdtset=  13.

 chkinp: Checking input parameters for consistency, jdtset=  14.

 chkinp: Checking input parameters for consistency, jdtset=  15.

 chkinp: Checking input parameters for consistency, jdtset=  16.

 chkinp: Checking input parameters for consistency, jdtset=  17.

 chkinp: Checking input parameters for consistency, jdtset=  18.

 chkinp: Checking input parameters for consistency, jdtset=  19.

 chkinp: Checking input parameters for consistency, jdtset=  20.

 chkinp: Checking input parameters for consistency, jdtset=  21.

 chkinp: Checking input parameters for consistency, jdtset=  22.

 chkinp: Checking input parameters for consistency, jdtset=  23.

 chkinp: Checking input parameters for consistency, jdtset=  24.

 chkinp: Checking input parameters for consistency, jdtset=  25.

 chkinp: Checking input parameters for consistency, jdtset=  26.

 chkinp: Checking input parameters for consistency, jdtset=  27.

 chkinp: Checking input parameters for consistency, jdtset=  28.

 chkinp: Checking input parameters for consistency, jdtset=  29.

 chkinp: Checking input parameters for consistency, jdtset=  30.

 chkinp: Checking input parameters for consistency, jdtset=  31.

 chkinp: Checking input parameters for consistency, jdtset=  32.

 chkinp: Checking input parameters for consistency, jdtset=  33.

 chkinp: Checking input parameters for consistency, jdtset=  34.

 chkinp: Checking input parameters for consistency, jdtset=  35.

 chkinp: Checking input parameters for consistency, jdtset=  36.

 chkinp: Checking input parameters for consistency, jdtset=  37.

 chkinp: Checking input parameters for consistency, jdtset=  38.

 chkinp: Checking input parameters for consistency, jdtset=  39.

 chkinp: Checking input parameters for consistency, jdtset=  40.

 chkinp: Checking input parameters for consistency, jdtset=  41.

================================================================================
== DATASET  1 ==================================================================
-   nproc =    1

 Exchange-correlation functional for the present dataset will be:
  LDA: new Teter (4/93) with spin-polarized option - ixc=1
 Citation for XC functional:
  S. Goedecker, M. Teter, J. Huetter, PRB 54, 1703 (1996)
 
 Real(R)+Recip(G) space primitive vectors, cartesian coordinates (Bohr,Bohr^-1):
 R(1)=  0.0000000  4.9000000  4.9000000  G(1)= -0.1020408  0.1020408  0.1020408
 R(2)=  4.9000000  0.0000000  4.9000000  G(2)=  0.1020408 -0.1020408  0.1020408
 R(3)=  4.9000000  4.9000000  0.0000000  G(3)=  0.1020408  0.1020408 -0.1020408
 Unit cell volume ucvol=  2.3529800E+02 bohr^3
 Angles (23,13,12)=  6.00000000E+01  6.00000000E+01  6.00000000E+01 degrees

 getcut: wavevector=  0.0000  0.0000  0.0000  ngfft=  30  30  30
         ecut(hartree)=     20.000   => boxcut(ratio)=   2.15284

--- Pseudopotential description ------------------------------------------------
- pspini: atom type   1  psp file is /work/02288/mgs763/abinit-7.2.2_src/tests/Psps_for_tests/14si.pspnc
- pspatm: opening atomic psp file    /work/02288/mgs763/abinit-7.2.2_src/tests/Psps_for_tests/14si.pspnc
-  Troullier-Martins psp for element  Si        Thu Oct 27 17:31:21 EDT 1994
- 14.00000   4.00000    940714                znucl, zion, pspdat
    1    1    2    2      2001   0.00000      pspcod,pspxc,lmax,lloc,mmax,r2well
    0   5.907  14.692    1   2.0872718        l,e99.0,e99.9,nproj,rcpsp
[...]
                       0  0  1   1  0  0   0  1  0       0  0 -1  -1  0  0   0 -1  0
                      -1  1  0  -1  0  0  -1  0  1       1 -1  0   1  0  0   1  0 -1
                       0  0  1   0  1  0   1  0  0       0  0 -1   0 -1  0  -1  0  0
                       1 -1  0   0 -1  0   0 -1  1      -1  1  0   0  1  0   0  1 -1
                       0  0 -1   1  0 -1   0  1 -1       0  0  1  -1  0  1   0 -1  1
                      -1  1  0  -1  0  1  -1  0  0       1 -1  0   1  0 -1   1  0  0
            tnons      0.0000000  0.0000000  0.0000000     0.2500000  0.2500000  0.2500000
                       0.0000000  0.0000000  0.0000000     0.2500000  0.2500000  0.2500000
                       0.0000000  0.0000000  0.0000000     0.2500000  0.2500000  0.2500000
                       0.0000000  0.0000000  0.0000000     0.2500000  0.2500000  0.2500000
                       0.0000000  0.0000000  0.0000000     0.2500000  0.2500000  0.2500000
                       0.0000000  0.0000000  0.0000000     0.2500000  0.2500000  0.2500000
                       0.0000000  0.0000000  0.0000000     0.2500000  0.2500000  0.2500000
                       0.0000000  0.0000000  0.0000000     0.2500000  0.2500000  0.2500000
                       0.0000000  0.0000000  0.0000000     0.2500000  0.2500000  0.2500000
                       0.0000000  0.0000000  0.0000000     0.2500000  0.2500000  0.2500000
                       0.0000000  0.0000000  0.0000000     0.2500000  0.2500000  0.2500000
                       0.0000000  0.0000000  0.0000000     0.2500000  0.2500000  0.2500000
                       0.0000000  0.0000000  0.0000000     0.2500000  0.2500000  0.2500000
                       0.0000000  0.0000000  0.0000000     0.2500000  0.2500000  0.2500000
                       0.0000000  0.0000000  0.0000000     0.2500000  0.2500000  0.2500000
                       0.0000000  0.0000000  0.0000000     0.2500000  0.2500000  0.2500000
                       0.0000000  0.0000000  0.0000000     0.2500000  0.2500000  0.2500000
                       0.0000000  0.0000000  0.0000000     0.2500000  0.2500000  0.2500000
                       0.0000000  0.0000000  0.0000000     0.2500000  0.2500000  0.2500000
                       0.0000000  0.0000000  0.0000000     0.2500000  0.2500000  0.2500000
                       0.0000000  0.0000000  0.0000000     0.2500000  0.2500000  0.2500000
                       0.0000000  0.0000000  0.0000000     0.2500000  0.2500000  0.2500000
                       0.0000000  0.0000000  0.0000000     0.2500000  0.2500000  0.2500000
                       0.0000000  0.0000000  0.0000000     0.2500000  0.2500000  0.2500000
           toldfe      1.00000000E-10 Hartree
            typat      1  1
              wtk        0.01172    0.01172    0.01172    0.02344    0.01172    0.01172
                         0.02344    0.01172    0.02344    0.02344    0.01172    0.01172
                         0.02344    0.01172    0.02344    0.02344    0.01172    0.02344
                         0.02344    0.02344    0.01172    0.01172    0.01172    0.02344
                         0.01172    0.02344    0.02344    0.02344    0.01172    0.02344
                         0.02344    0.02344    0.02344    0.01172    0.01172    0.01172
                         0.01172    0.01172    0.02344    0.02344    0.01172    0.02344
                         0.02344    0.02344    0.02344    0.02344    0.01172    0.01172
                         0.01172    0.01172
                       outvars : Printing only first  50 k-points.
           xangst1     0.0000000000E+00  0.0000000000E+00  0.0000000000E+00
                       1.2964841610E+00  1.2964841610E+00  1.2964841610E+00
           xangst2     0.0000000000E+00  0.0000000000E+00  0.0000000000E+00
                       1.2991300471E+00  1.2991300471E+00  1.2991300471E+00
           xangst3     0.0000000000E+00  0.0000000000E+00  0.0000000000E+00
                       1.3017759331E+00  1.3017759331E+00  1.3017759331E+00
           xangst4     0.0000000000E+00  0.0000000000E+00  0.0000000000E+00
                       1.3044218192E+00  1.3044218192E+00  1.3044218192E+00
           xangst5     0.0000000000E+00  0.0000000000E+00  0.0000000000E+00
                       1.3070677052E+00  1.3070677052E+00  1.3070677052E+00
           xangst6     0.0000000000E+00  0.0000000000E+00  0.0000000000E+00
                       1.3097135913E+00  1.3097135913E+00  1.3097135913E+00
           xangst7     0.0000000000E+00  0.0000000000E+00  0.0000000000E+00
                       1.3123594773E+00  1.3123594773E+00  1.3123594773E+00
           xangst8     0.0000000000E+00  0.0000000000E+00  0.0000000000E+00
                       1.3150053633E+00  1.3150053633E+00  1.3150053633E+00
           xangst9     0.0000000000E+00  0.0000000000E+00  0.0000000000E+00
                       1.3176512494E+00  1.3176512494E+00  1.3176512494E+00
           xangst10    0.0000000000E+00  0.0000000000E+00  0.0000000000E+00
                       1.3202971354E+00  1.3202971354E+00  1.3202971354E+00
           xangst11    0.0000000000E+00  0.0000000000E+00  0.0000000000E+00
                       1.3229430215E+00  1.3229430215E+00  1.3229430215E+00
           xangst12    0.0000000000E+00  0.0000000000E+00  0.0000000000E+00
                       1.3255889075E+00  1.3255889075E+00  1.3255889075E+00
           xangst13    0.0000000000E+00  0.0000000000E+00  0.0000000000E+00
                       1.3282347936E+00  1.3282347936E+00  1.3282347936E+00
           xangst14    0.0000000000E+00  0.0000000000E+00  0.0000000000E+00
                       1.3308806796E+00  1.3308806796E+00  1.3308806796E+00
           xangst15    0.0000000000E+00  0.0000000000E+00  0.0000000000E+00
                       1.3335265656E+00  1.3335265656E+00  1.3335265656E+00
           xangst16    0.0000000000E+00  0.0000000000E+00  0.0000000000E+00
                       1.3361724517E+00  1.3361724517E+00  1.3361724517E+00
           xangst17    0.0000000000E+00  0.0000000000E+00  0.0000000000E+00
                       1.3388183377E+00  1.3388183377E+00  1.3388183377E+00
           xangst18    0.0000000000E+00  0.0000000000E+00  0.0000000000E+00
                       1.3414642238E+00  1.3414642238E+00  1.3414642238E+00
           xangst19    0.0000000000E+00  0.0000000000E+00  0.0000000000E+00
                       1.3441101098E+00  1.3441101098E+00  1.3441101098E+00
           xangst20    0.0000000000E+00  0.0000000000E+00  0.0000000000E+00
                       1.3467559959E+00  1.3467559959E+00  1.3467559959E+00
           xangst21    0.0000000000E+00  0.0000000000E+00  0.0000000000E+00
                       1.3494018819E+00  1.3494018819E+00  1.3494018819E+00
           xangst22    0.0000000000E+00  0.0000000000E+00  0.0000000000E+00
                       1.3520477679E+00  1.3520477679E+00  1.3520477679E+00
           xangst23    0.0000000000E+00  0.0000000000E+00  0.0000000000E+00
                       1.3546936540E+00  1.3546936540E+00  1.3546936540E+00
           xangst24    0.0000000000E+00  0.0000000000E+00  0.0000000000E+00
                       1.3573395400E+00  1.3573395400E+00  1.3573395400E+00
           xangst25    0.0000000000E+00  0.0000000000E+00  0.0000000000E+00
                       1.3599854261E+00  1.3599854261E+00  1.3599854261E+00
           xangst26    0.0000000000E+00  0.0000000000E+00  0.0000000000E+00
                       1.3626313121E+00  1.3626313121E+00  1.3626313121E+00
           xangst27    0.0000000000E+00  0.0000000000E+00  0.0000000000E+00
                       1.3652771982E+00  1.3652771982E+00  1.3652771982E+00
           xangst28    0.0000000000E+00  0.0000000000E+00  0.0000000000E+00
                       1.3679230842E+00  1.3679230842E+00  1.3679230842E+00
           xangst29    0.0000000000E+00  0.0000000000E+00  0.0000000000E+00
                       1.3705689702E+00  1.3705689702E+00  1.3705689702E+00
           xangst30    0.0000000000E+00  0.0000000000E+00  0.0000000000E+00
                       1.3732148563E+00  1.3732148563E+00  1.3732148563E+00
           xangst31    0.0000000000E+00  0.0000000000E+00  0.0000000000E+00
                       1.3758607423E+00  1.3758607423E+00  1.3758607423E+00
           xangst32    0.0000000000E+00  0.0000000000E+00  0.0000000000E+00
                       1.3785066284E+00  1.3785066284E+00  1.3785066284E+00
           xangst33    0.0000000000E+00  0.0000000000E+00  0.0000000000E+00
                       1.3811525144E+00  1.3811525144E+00  1.3811525144E+00
           xangst34    0.0000000000E+00  0.0000000000E+00  0.0000000000E+00
                       1.3837984005E+00  1.3837984005E+00  1.3837984005E+00
           xangst35    0.0000000000E+00  0.0000000000E+00  0.0000000000E+00
                       1.3864442865E+00  1.3864442865E+00  1.3864442865E+00
           xangst36    0.0000000000E+00  0.0000000000E+00  0.0000000000E+00
                       1.3890901725E+00  1.3890901725E+00  1.3890901725E+00
           xangst37    0.0000000000E+00  0.0000000000E+00  0.0000000000E+00
                       1.3917360586E+00  1.3917360586E+00  1.3917360586E+00
           xangst38    0.0000000000E+00  0.0000000000E+00  0.0000000000E+00
                       1.3943819446E+00  1.3943819446E+00  1.3943819446E+00
           xangst39    0.0000000000E+00  0.0000000000E+00  0.0000000000E+00
                       1.3970278307E+00  1.3970278307E+00  1.3970278307E+00
           xangst40    0.0000000000E+00  0.0000000000E+00  0.0000000000E+00
                       1.3996737167E+00  1.3996737167E+00  1.3996737167E+00
           xangst41    0.0000000000E+00  0.0000000000E+00  0.0000000000E+00
                       1.4023196028E+00  1.4023196028E+00  1.4023196028E+00
            xcart1     0.0000000000E+00  0.0000000000E+00  0.0000000000E+00
                       2.4500000000E+00  2.4500000000E+00  2.4500000000E+00
            xcart2     0.0000000000E+00  0.0000000000E+00  0.0000000000E+00
                       2.4550000000E+00  2.4550000000E+00  2.4550000000E+00
            xcart3     0.0000000000E+00  0.0000000000E+00  0.0000000000E+00
                       2.4600000000E+00  2.4600000000E+00  2.4600000000E+00
            xcart4     0.0000000000E+00  0.0000000000E+00  0.0000000000E+00
                       2.4650000000E+00  2.4650000000E+00  2.4650000000E+00
            xcart5     0.0000000000E+00  0.0000000000E+00  0.0000000000E+00
                       2.4700000000E+00  2.4700000000E+00  2.4700000000E+00
            xcart6     0.0000000000E+00  0.0000000000E+00  0.0000000000E+00
                       2.4750000000E+00  2.4750000000E+00  2.4750000000E+00
            xcart7     0.0000000000E+00  0.0000000000E+00  0.0000000000E+00
                       2.4800000000E+00  2.4800000000E+00  2.4800000000E+00
            xcart8     0.0000000000E+00  0.0000000000E+00  0.0000000000E+00
                       2.4850000000E+00  2.4850000000E+00  2.4850000000E+00
            xcart9     0.0000000000E+00  0.0000000000E+00  0.0000000000E+00
                       2.4900000000E+00  2.4900000000E+00  2.4900000000E+00
            xcart10    0.0000000000E+00  0.0000000000E+00  0.0000000000E+00
                       2.4950000000E+00  2.4950000000E+00  2.4950000000E+00
            xcart11    0.0000000000E+00  0.0000000000E+00  0.0000000000E+00
                       2.5000000000E+00  2.5000000000E+00  2.5000000000E+00
            xcart12    0.0000000000E+00  0.0000000000E+00  0.0000000000E+00
                       2.5050000000E+00  2.5050000000E+00  2.5050000000E+00
            xcart13    0.0000000000E+00  0.0000000000E+00  0.0000000000E+00
                       2.5100000000E+00  2.5100000000E+00  2.5100000000E+00
            xcart14    0.0000000000E+00  0.0000000000E+00  0.0000000000E+00
                       2.5150000000E+00  2.5150000000E+00  2.5150000000E+00
            xcart15    0.0000000000E+00  0.0000000000E+00  0.0000000000E+00
                       2.5200000000E+00  2.5200000000E+00  2.5200000000E+00
            xcart16    0.0000000000E+00  0.0000000000E+00  0.0000000000E+00
                       2.5250000000E+00  2.5250000000E+00  2.5250000000E+00
            xcart17    0.0000000000E+00  0.0000000000E+00  0.0000000000E+00
                       2.5300000000E+00  2.5300000000E+00  2.5300000000E+00
            xcart18    0.0000000000E+00  0.0000000000E+00  0.0000000000E+00
                       2.5350000000E+00  2.5350000000E+00  2.5350000000E+00
            xcart19    0.0000000000E+00  0.0000000000E+00  0.0000000000E+00
                       2.5400000000E+00  2.5400000000E+00  2.5400000000E+00
            xcart20    0.0000000000E+00  0.0000000000E+00  0.0000000000E+00
                       2.5450000000E+00  2.5450000000E+00  2.5450000000E+00
            xcart21    0.0000000000E+00  0.0000000000E+00  0.0000000000E+00
                       2.5500000000E+00  2.5500000000E+00  2.5500000000E+00
            xcart22    0.0000000000E+00  0.0000000000E+00  0.0000000000E+00
                       2.5550000000E+00  2.5550000000E+00  2.5550000000E+00
            xcart23    0.0000000000E+00  0.0000000000E+00  0.0000000000E+00
                       2.5600000000E+00  2.5600000000E+00  2.5600000000E+00
            xcart24    0.0000000000E+00  0.0000000000E+00  0.0000000000E+00
                       2.5650000000E+00  2.5650000000E+00  2.5650000000E+00
            xcart25    0.0000000000E+00  0.0000000000E+00  0.0000000000E+00
                       2.5700000000E+00  2.5700000000E+00  2.5700000000E+00
            xcart26    0.0000000000E+00  0.0000000000E+00  0.0000000000E+00
                       2.5750000000E+00  2.5750000000E+00  2.5750000000E+00
            xcart27    0.0000000000E+00  0.0000000000E+00  0.0000000000E+00
                       2.5800000000E+00  2.5800000000E+00  2.5800000000E+00
            xcart28    0.0000000000E+00  0.0000000000E+00  0.0000000000E+00
                       2.5850000000E+00  2.5850000000E+00  2.5850000000E+00
            xcart29    0.0000000000E+00  0.0000000000E+00  0.0000000000E+00
                       2.5900000000E+00  2.5900000000E+00  2.5900000000E+00
            xcart30    0.0000000000E+00  0.0000000000E+00  0.0000000000E+00
                       2.5950000000E+00  2.5950000000E+00  2.5950000000E+00
            xcart31    0.0000000000E+00  0.0000000000E+00  0.0000000000E+00
                       2.6000000000E+00  2.6000000000E+00  2.6000000000E+00
            xcart32    0.0000000000E+00  0.0000000000E+00  0.0000000000E+00
                       2.6050000000E+00  2.6050000000E+00  2.6050000000E+00
            xcart33    0.0000000000E+00  0.0000000000E+00  0.0000000000E+00
                       2.6100000000E+00  2.6100000000E+00  2.6100000000E+00
            xcart34    0.0000000000E+00  0.0000000000E+00  0.0000000000E+00
                       2.6150000000E+00  2.6150000000E+00  2.6150000000E+00
            xcart35    0.0000000000E+00  0.0000000000E+00  0.0000000000E+00
                       2.6200000000E+00  2.6200000000E+00  2.6200000000E+00
            xcart36    0.0000000000E+00  0.0000000000E+00  0.0000000000E+00
                       2.6250000000E+00  2.6250000000E+00  2.6250000000E+00
            xcart37    0.0000000000E+00  0.0000000000E+00  0.0000000000E+00
                       2.6300000000E+00  2.6300000000E+00  2.6300000000E+00
            xcart38    0.0000000000E+00  0.0000000000E+00  0.0000000000E+00
                       2.6350000000E+00  2.6350000000E+00  2.6350000000E+00
            xcart39    0.0000000000E+00  0.0000000000E+00  0.0000000000E+00
                       2.6400000000E+00  2.6400000000E+00  2.6400000000E+00
            xcart40    0.0000000000E+00  0.0000000000E+00  0.0000000000E+00
                       2.6450000000E+00  2.6450000000E+00  2.6450000000E+00
            xcart41    0.0000000000E+00  0.0000000000E+00  0.0000000000E+00
                       2.6500000000E+00  2.6500000000E+00  2.6500000000E+00
             xred      0.0000000000E+00  0.0000000000E+00  0.0000000000E+00
                       2.5000000000E-01  2.5000000000E-01  2.5000000000E-01
            znucl       14.00000

================================================================================


- Timing analysis has been suppressed with timopt=0



================================================================================

 Suggested references for the acknowledgment of ABINIT usage.

 The users of ABINIT have little formal obligations with respect to the ABINIT group
 (those specified in the GNU General Public License, http://www.gnu.org/copyleft/gpl.txt).
 However, it is common practice in the scientific literature,
 to acknowledge the efforts of people that have made the research possible.
 In this spirit, please find below suggested citations of work written by ABINIT developers,
 corresponding to implementations inside of ABINIT that you have used in the present run.
 Note also that it will be of great value to readers of publications presenting these results,
 to read papers enabling them to understand the theoretical formalism and details
 of the ABINIT implementation.
 For information on why they are suggested, see also http://www.abinit.org/about/?text=acknowledgments.

 [1] ABINIT : First-principles approach of materials and nanosystem properties.
 X. Gonze, B. Amadon, P.-M. Anglade, J.-M. Beuken, F. Bottin, P. Boulanger, F. Bruneval,
 D. Caliste, R. Caracas, M. Cote, T. Deutsch, L. Genovese, Ph. Ghosez, M. Giantomassi
 S. Goedecker, D.R. Hamann, P. Hermet, F. Jollet, G. Jomard, S. Leroux, M. Mancini, S. Mazevet,
 M.J.T. Oliveira, G. Onida, Y. Pouillon, T. Rangel, G.-M. Rignanese, D. Sangalli, R. Shaltaf,
 M. Torrent, M.J. Verstraete, G. Zerah, J.W. Zwanziger
 Computer Phys. Comm. 180, 2582-2615 (2009).
 Comment : the third generic paper describing the ABINIT project.
 Note that a version of this paper, that is not formatted for Computer Phys. Comm. 
 is available at http://www.abinit.org/about/ABINIT_CPC_v10.pdf .
 The licence allows the authors to put it on the Web.

 [2] A brief introduction to the ABINIT software package.
 X. Gonze, G.-M. Rignanese, M. Verstraete, J.-M. Beuken, Y. Pouillon, R. Caracas, F. Jollet,
 M. Torrent, G. Zerah, M. Mikami, Ph. Ghosez, M. Veithen, J.-Y. Raty, V. Olevano, F. Bruneval,
 L. Reining, R. Godby, G. Onida, D.R. Hamann, and D.C. Allan.
 Z. Kristallogr. 220, 558-562 (2005).
 Comment : the second generic paper describing the ABINIT project. Note that this paper
 should be cited especially if you are using the GW part of ABINIT, as several authors
 of this part are not in the list of authors of the first or third paper.
 The .pdf of the latter paper is available at http://www.abinit.org/about/zfk_0505-06_558-562.pdf.
 Note that it should not redistributed (Copyright by Oldenburg Wissenshaftverlag,
 the licence allows the authors to put it on the Web).


 And optionally :

 [3] First-principles computation of material properties : the ABINIT software project. 
 X. Gonze, J.-M. Beuken, R. Caracas, F. Detraux, M. Fuchs, G.-M. Rignanese, L. Sindic,
 M. Verstraete, G. Zerah, F. Jollet, M. Torrent, A. Roy, M. Mikami, Ph. Ghosez, J.-Y. Raty, D.C. Allan.
 Computational Materials Science 25, 478-492 (2002). http://dx.doi.org/10.1016/S0927-0256(02)00325-7
 Comment : the original paper describing the ABINIT project.

 [4] Fast radix 2, 3, 4 and 5 kernels for Fast Fourier Transformations
 on computers with overlapping multiply-add instructions.
 S. Goedecker, SIAM J. on Scientific Computing 18, 1605 (1997).
-
- Proc.   0 individual time (sec): cpu=        519.3  wall=        521.6

================================================================================

 Calculation completed.
.Delivered    1 WARNINGs and  82 COMMENTs to log file.
+Overall time at end (sec) : cpu=        519.3  wall=        521.6
