
.Version 7.4.3 of ABINIT 
.(MPI version, prepared for a x86_64_linux_intel13.1 computer) 

.Copyright (C) 1998-2013 ABINIT group . 
 ABINIT comes with ABSOLUTELY NO WARRANTY.
 It is free software, and you are welcome to redistribute it
 under certain conditions (GNU General Public License,
 see ~abinit/COPYING or http://www.gnu.org/copyleft/gpl.txt).

 ABINIT is a project of the Universite Catholique de Louvain,
 Corning Inc. and other collaborators, see ~abinit/doc/developers/contributors.txt .
 Please read ~abinit/doc/users/acknowledgments.html for suggested
 acknowledgments of the ABINIT effort.
 For more information, see http://www.abinit.org .

.Starting date : Thu  7 Nov 2013.
- ( at 11h18 )
  
- input  file    -> STO_structopt.in
- output file    -> STO_structopt.out
- root for input  files -> in_structopt
- root for output files -> out_structopt


 DATASET    1 : space group P4 m m (# 99); Bravais tP (primitive tetrag.)
================================================================================
 Values of the parameters that define the memory need for DATASET  1.
   intxc =         0  ionmov =         2    iscf =         7 xclevel =         1
  lmnmax =         4   lnmax =         4   mband =        13  mffmem =         1
P  mgfft =        32   mkmem =         5 mpssoang=         4     mpw =       283
  mqgrid =      3001   natom =         5    nfft =      8192    nkpt =        40
  nloalg =         4  nspden =         1 nspinor =         1  nsppol =         1
    nsym =         8  n1xccc =      2501  ntypat =         3  occopt =         1
================================================================================
P This job should need less than                       5.149 Mbytes of memory.
  Rough estimation (10% accuracy) of disk space for files :
_ WF disk file :      8.984 Mbytes ; DEN or POT disk file :      0.065 Mbytes.
================================================================================

--------------------------------------------------------------------------------
------------- Echo of variables that govern the present computation ------------
--------------------------------------------------------------------------------
-
- outvars: echo of selected default values                                      
-   accesswff0 =  0 , fftalg0 =312 , wfoptalg0 =  0
-
- outvars: echo of global parameters not present in the input file              
-  max_nthreads =    0
-
 -outvars: echo values of preprocessed input variables --------
        accesswff           1
            acell      7.3699319183E+00  7.3699319183E+00  7.3699319183E+00 Bohr
              amu      8.76200000E+01  4.78800000E+01  1.59994000E+01
           diemac      5.00000000E+00
             ecut      1.46997302E+01 Hartree
           fftalg         401
      fft_opt_lob           2
           iatfix        1
           ionmov           2
           iprcch           6
              ixc           7
           jdtset        1
              kpt      6.25000000E-02  6.25000000E-02  6.25000000E-02
                       1.87500000E-01  6.25000000E-02  6.25000000E-02
                       3.12500000E-01  6.25000000E-02  6.25000000E-02
                       4.37500000E-01  6.25000000E-02  6.25000000E-02
                       1.87500000E-01  1.87500000E-01  6.25000000E-02
                       3.12500000E-01  1.87500000E-01  6.25000000E-02
                       4.37500000E-01  1.87500000E-01  6.25000000E-02
                       3.12500000E-01  3.12500000E-01  6.25000000E-02
                       4.37500000E-01  3.12500000E-01  6.25000000E-02
                       4.37500000E-01  4.37500000E-01  6.25000000E-02
                       6.25000000E-02  6.25000000E-02  1.87500000E-01
                       1.87500000E-01  6.25000000E-02  1.87500000E-01
                       3.12500000E-01  6.25000000E-02  1.87500000E-01
                       4.37500000E-01  6.25000000E-02  1.87500000E-01
                       1.87500000E-01  1.87500000E-01  1.87500000E-01
                       3.12500000E-01  1.87500000E-01  1.87500000E-01
                       4.37500000E-01  1.87500000E-01  1.87500000E-01
                       3.12500000E-01  3.12500000E-01  1.87500000E-01
                       4.37500000E-01  3.12500000E-01  1.87500000E-01
                       4.37500000E-01  4.37500000E-01  1.87500000E-01
                       6.25000000E-02  6.25000000E-02  3.12500000E-01
                       1.87500000E-01  6.25000000E-02  3.12500000E-01
                       3.12500000E-01  6.25000000E-02  3.12500000E-01
                       4.37500000E-01  6.25000000E-02  3.12500000E-01
                       1.87500000E-01  1.87500000E-01  3.12500000E-01
                       3.12500000E-01  1.87500000E-01  3.12500000E-01
                       4.37500000E-01  1.87500000E-01  3.12500000E-01
                       3.12500000E-01  3.12500000E-01  3.12500000E-01
                       4.37500000E-01  3.12500000E-01  3.12500000E-01
                       4.37500000E-01  4.37500000E-01  3.12500000E-01
                       6.25000000E-02  6.25000000E-02  4.37500000E-01
                       1.87500000E-01  6.25000000E-02  4.37500000E-01
                       3.12500000E-01  6.25000000E-02  4.37500000E-01
                       4.37500000E-01  6.25000000E-02  4.37500000E-01
                       1.87500000E-01  1.87500000E-01  4.37500000E-01
                       3.12500000E-01  1.87500000E-01  4.37500000E-01
                       4.37500000E-01  1.87500000E-01  4.37500000E-01
                       3.12500000E-01  3.12500000E-01  4.37500000E-01
                       4.37500000E-01  3.12500000E-01  4.37500000E-01
                       4.37500000E-01  4.37500000E-01  4.37500000E-01
         kptrlatt        8    0    0      0    8    0      0    0    8
          kptrlen      5.89594553E+01
P           mkmem           5
           natfix           1
            natom           5
            nband          13
           ndtset           1
            ngfft          32      32      32
             nkpt          40
            npfft           4
-           npkpt           8
            nstep         150
             nsym           8
            ntime          25
           ntypat           3
              occ      2.000000  2.000000  2.000000  2.000000  2.000000  2.000000
                       2.000000  2.000000  2.000000  2.000000  2.000000  2.000000
                       0.000000
           ortalg          -2
        paral_kgb           1
           prteig           0
        restartxf          -1
           shiftk      5.00000000E-01  5.00000000E-01  5.00000000E-01
          spgroup          99
           symrel      1  0  0   0  1  0   0  0  1       1  0  0   0 -1  0   0  0  1
                      -1  0  0   0 -1  0   0  0  1      -1  0  0   0  1  0   0  0  1
                       0  1  0   1  0  0   0  0  1       0  1  0  -1  0  0   0  0  1
                       0 -1  0  -1  0  0   0  0  1       0 -1  0   1  0  0   0  0  1
           toldfe      1.00000000E-06 Hartree
           tolmxf      1.00000000E-05
            typat      1  2  3  3  3
         wfoptalg          14
              wtk        0.01563    0.03125    0.03125    0.03125    0.01563    0.03125
                         0.03125    0.01563    0.03125    0.01563    0.01563    0.03125
                         0.03125    0.03125    0.01563    0.03125    0.03125    0.01563
                         0.03125    0.01563    0.01563    0.03125    0.03125    0.03125
                         0.01563    0.03125    0.03125    0.01563    0.03125    0.01563
                         0.01563    0.03125    0.03125    0.03125    0.01563    0.03125
                         0.03125    0.01563    0.03125    0.01563
           xangst      0.0000000000E+00  0.0000000000E+00  0.0000000000E+00
                       1.9500000000E+00  1.9500000000E+00  1.9695000000E+00
                       0.0000000000E+00  1.9500000000E+00  1.9500000000E+00
                       1.9500000000E+00  0.0000000000E+00  1.9500000000E+00
                       1.9500000000E+00  1.9500000000E+00  0.0000000000E+00
            xcart      0.0000000000E+00  0.0000000000E+00  0.0000000000E+00
                       3.6849659591E+00  3.6849659591E+00  3.7218156187E+00
                       0.0000000000E+00  3.6849659591E+00  3.6849659591E+00
                       3.6849659591E+00  0.0000000000E+00  3.6849659591E+00
                       3.6849659591E+00  3.6849659591E+00  0.0000000000E+00
             xred      0.0000000000E+00  0.0000000000E+00  0.0000000000E+00
                       5.0000000000E-01  5.0000000000E-01  5.0500000000E-01
                       0.0000000000E+00  5.0000000000E-01  5.0000000000E-01
                       5.0000000000E-01  0.0000000000E+00  5.0000000000E-01
                       5.0000000000E-01  5.0000000000E-01  0.0000000000E+00
            znucl       38.00000   22.00000    8.00000

================================================================================

 chkinp: Checking input parameters for consistency, jdtset=   1.

================================================================================
== DATASET  1 ==================================================================
-   nproc =   32

 Exchange-correlation functional for the present dataset will be:
  LDA: Perdew-Wang 92 LSD fit to Ceperley-Alder data - ixc=7
 Citation for XC functional:
  J.P.Perdew and Y.Wang, PRB 45, 13244 (1992)
 
 Real(R)+Recip(G) space primitive vectors, cartesian coordinates (Bohr,Bohr^-1):
 R(1)=  7.3699319  0.0000000  0.0000000  G(1)=  0.1356865  0.0000000  0.0000000
 R(2)=  0.0000000  7.3699319  0.0000000  G(2)=  0.0000000  0.1356865  0.0000000
 R(3)=  0.0000000  0.0000000  7.3699319  G(3)=  0.0000000  0.0000000  0.1356865
 Unit cell volume ucvol=  4.0030446E+02 bohr^3
 Angles (23,13,12)=  9.00000000E+01  9.00000000E+01  9.00000000E+01 degrees

 getcut: wavevector=  0.0000  0.0000  0.0000  ngfft=  32  32  32
         ecut(hartree)=     14.700   => boxcut(ratio)=   2.51575

 getcut : COMMENT -
  Note that boxcut > 2.2 ; recall that boxcut=Gcut(box)/Gcut(sphere) = 2
  is sufficient for exact treatment of convolution.
  Such a large boxcut is a waste : you could raise ecut
  e.g. ecut=   23.258557 Hartrees makes boxcut=2


--- Pseudopotential description ------------------------------------------------
- pspini: atom type   1  psp file is ../psps/38sr_LDA_FHI.fhi
- pspatm: opening atomic psp file    ../psps/38sr_LDA_FHI.fhi
- strontium, fhi98PP : Trouiller-Martins-type, LDA Ceperley/Alder Perdew/Wang (1992), l= 0 local
- 38.00000   2.00000     11001                znucl, zion, pspdat
    6    7    3    0       537   0.00000      pspcod,pspxc,lmax,lloc,mmax,r2well
    7.56200000000000    1.00000000000000    0.00000000000000   rchrg,fchrg,qchrg
  1.024700          amesh (Hamman grid)
 pspatm: epsatm=   93.08613442
         --- l  ekb(1:nproj) -->
             1   23.261112
             2   -2.794329
             3   -1.070229
 pspatm: atomic psp has been read  and splines computed

- pspini: atom type   2  psp file is ../psps/22ti_LDA_FHI.fhi
- pspatm: opening atomic psp file    ../psps/22ti_LDA_FHI.fhi
- titanium, fhi98PP : Trouiller-Martins-type, LDA Ceperley/Alder Perdew/Wang (1992), l= 1 local
- 22.00000   4.00000     21003                znucl, zion, pspdat
    6    7    3    1       515   0.00000      pspcod,pspxc,lmax,lloc,mmax,r2well
    0.00000000000000    0.00000000000000    0.00000000000000   rchrg,fchrg,qchrg
  1.024700          amesh (Hamman grid)
 pspatm: epsatm=   58.87618897
         --- l  ekb(1:nproj) -->
             0   -0.518582
             2   -5.296591
             3   -1.216009
 pspatm: atomic psp has been read  and splines computed

- pspini: atom type   3  psp file is ../psps/8o_LDA_FHI.fhi
- pspatm: opening atomic psp file    ../psps/8o_LDA_FHI.fhi
- oxygen, fhi98PP : Trouiller-Martins-type, LDA Ceperley/Alder Perdew/Wang (1992), l= 2 local
-  8.00000   6.00000     21003                znucl, zion, pspdat
    6    7    3    2       473   0.00000      pspcod,pspxc,lmax,lloc,mmax,r2well
    0.00000000000000    0.00000000000000    0.00000000000000   rchrg,fchrg,qchrg
  1.024700          amesh (Hamman grid)
 pspatm: epsatm=    3.67996594
         --- l  ekb(1:nproj) -->
             0    2.914750
             1   -2.952330
             3   -3.448613
 pspatm: atomic psp has been read  and splines computed

   3.91205331E+03                                ecore*ucvol(ha*bohr**3)
--------------------------------------------------------------------------------

P newkpt: treating     13 bands with npw=     271 for ikpt=   1 by node    0
P newkpt: treating     13 bands with npw=     280 for ikpt=   2 by node    0
P newkpt: treating     13 bands with npw=     281 for ikpt=   3 by node    0
P newkpt: treating     13 bands with npw=     282 for ikpt=   4 by node    0
P newkpt: treating     13 bands with npw=     280 for ikpt=   5 by node    0
P newkpt: treating     13 bands with npw=     280 for ikpt=   6 by node    1
P newkpt: treating     13 bands with npw=     282 for ikpt=   7 by node    1
P newkpt: treating     13 bands with npw=     277 for ikpt=   8 by node    1
P newkpt: treating     13 bands with npw=     281 for ikpt=   9 by node    1
P newkpt: treating     13 bands with npw=     276 for ikpt=  10 by node    1
P newkpt: treating     13 bands with npw=     280 for ikpt=  11 by node    2
P newkpt: treating     13 bands with npw=     281 for ikpt=  12 by node    2
P newkpt: treating     13 bands with npw=     283 for ikpt=  13 by node    2
P newkpt: treating     13 bands with npw=     283 for ikpt=  14 by node    2
P newkpt: treating     13 bands with npw=     279 for ikpt=  15 by node    2
P newkpt: treating     13 bands with npw=     280 for ikpt=  16 by node    3
P newkpt: treating     13 bands with npw=     282 for ikpt=  17 by node    3
P newkpt: treating     13 bands with npw=     279 for ikpt=  18 by node    3
P newkpt: treating     13 bands with npw=     278 for ikpt=  19 by node    3
P newkpt: treating     13 bands with npw=     278 for ikpt=  20 by node    3
P newkpt: treating     13 bands with npw=     281 for ikpt=  21 by node    4
P newkpt: treating     13 bands with npw=     283 for ikpt=  22 by node    4
P newkpt: treating     13 bands with npw=     283 for ikpt=  23 by node    4
P newkpt: treating     13 bands with npw=     280 for ikpt=  24 by node    4
P newkpt: treating     13 bands with npw=     280 for ikpt=  25 by node    4
P newkpt: treating     13 bands with npw=     283 for ikpt=  26 by node    5
P newkpt: treating     13 bands with npw=     281 for ikpt=  27 by node    5
P newkpt: treating     13 bands with npw=     278 for ikpt=  28 by node    5
P newkpt: treating     13 bands with npw=     278 for ikpt=  29 by node    5
P newkpt: treating     13 bands with npw=     275 for ikpt=  30 by node    5
P newkpt: treating     13 bands with npw=     282 for ikpt=  31 by node    6
P newkpt: treating     13 bands with npw=     283 for ikpt=  32 by node    6
P newkpt: treating     13 bands with npw=     280 for ikpt=  33 by node    6
P newkpt: treating     13 bands with npw=     277 for ikpt=  34 by node    6
P newkpt: treating     13 bands with npw=     282 for ikpt=  35 by node    6
P newkpt: treating     13 bands with npw=     281 for ikpt=  36 by node    7
P newkpt: treating     13 bands with npw=     277 for ikpt=  37 by node    7
P newkpt: treating     13 bands with npw=     278 for ikpt=  38 by node    7
P newkpt: treating     13 bands with npw=     277 for ikpt=  39 by node    7
P newkpt: treating     13 bands with npw=     273 for ikpt=  40 by node    7
 
_setup2: Arith. and geom. avg. npw (full set) are     280.016     280.004

================================================================================

=== [ionmov= 2] Broyden-Fletcher-Goldfard-Shanno method (forces)            
================================================================================

--- Iteration: ( 1/45) Internal Cycle: (1/1)
--------------------------------------------------------------------------------

---SELF-CONSISTENT-FIELD CONVERGENCE--------------------------------------------

---OUTPUT-----------------------------------------------------------------------

 Cartesian coordinates (xcart) [bohr]
  0.00000000000000E+00  0.00000000000000E+00  0.00000000000000E+00
  3.68496595912700E+00  3.68496595912700E+00  3.72181561871827E+00
  0.00000000000000E+00  3.68496595912700E+00  3.68496595912700E+00
  3.68496595912700E+00  0.00000000000000E+00  3.68496595912700E+00
  3.68496595912700E+00  3.68496595912700E+00  0.00000000000000E+00
 Reduced coordinates (xred)
  0.00000000000000E+00  0.00000000000000E+00  0.00000000000000E+00
  5.00000000000000E-01  5.00000000000000E-01  5.05000000000000E-01
  0.00000000000000E+00  5.00000000000000E-01  5.00000000000000E-01
  5.00000000000000E-01  0.00000000000000E+00  5.00000000000000E-01
  5.00000000000000E-01  5.00000000000000E-01  0.00000000000000E+00
 Cartesian forces (fcart) [Ha/bohr]; max,rms= 1.01815E-02 4.12721E-03 (free atoms)
  0.00000000000000E+00  0.00000000000000E+00  9.20301854505948E-04
  0.00000000000000E+00  0.00000000000000E+00 -1.00072343526491E-02
  0.00000000000000E+00  0.00000000000000E+00 -5.47265369072900E-04
  0.00000000000000E+00  0.00000000000000E+00 -5.47265369072900E-04
  0.00000000000000E+00  0.00000000000000E+00  1.01814632362890E-02
 Reduced forces (fred)
  0.00000000000000E+00  0.00000000000000E+00 -7.00145345777675E-03
  0.00000000000000E+00  0.00000000000000E+00  7.35337444232118E-02
  0.00000000000000E+00  0.00000000000000E+00  3.81441706546042E-03
  0.00000000000000E+00  0.00000000000000E+00  3.81441706546042E-03
  0.00000000000000E+00  0.00000000000000E+00 -7.52555823254809E-02
 Total energy (etotal) [Ha]= -5.20826522113994E+01

--- Iteration: ( 2/45) Internal Cycle: (1/1)
--------------------------------------------------------------------------------

---SELF-CONSISTENT-FIELD CONVERGENCE--------------------------------------------

---OUTPUT-----------------------------------------------------------------------

 Cartesian coordinates (xcart) [bohr]
  0.00000000000000E+00  0.00000000000000E+00  0.00000000000000E+00
  3.68496595912700E+00  3.68496595912700E+00  3.71180838436563E+00
  0.00000000000000E+00  3.68496595912700E+00  3.68441869375793E+00
  3.68496595912700E+00  0.00000000000000E+00  3.68441869375793E+00
  3.68496595912700E+00  3.68496595912700E+00  1.01814632362890E-02
 Reduced coordinates (xred)
  0.00000000000000E+00  0.00000000000000E+00  0.00000000000000E+00
  5.00000000000000E-01  5.00000000000000E-01  5.03642153758861E-01
  0.00000000000000E+00  5.00000000000000E-01  4.99925743497343E-01
  5.00000000000000E-01  0.00000000000000E+00  4.99925743497343E-01
  5.00000000000000E-01  5.00000000000000E-01  1.38148674224131E-03
 Cartesian forces (fcart) [Ha/bohr]; max,rms= 4.39223E-03 1.48629E-03 (free atoms)
  0.00000000000000E+00  0.00000000000000E+00  8.01072650974079E-04
  0.00000000000000E+00  0.00000000000000E+00 -4.39223303081746E-03
  0.00000000000000E+00  0.00000000000000E+00  4.99660213492907E-04
  0.00000000000000E+00  0.00000000000000E+00  4.99660213492907E-04
  0.00000000000000E+00  0.00000000000000E+00  2.59183995285757E-03
 Reduced forces (fred)
  0.00000000000000E+00  0.00000000000000E+00 -5.89186363160601E-03
  0.00000000000000E+00  0.00000000000000E+00  3.23824456738794E-02
  0.00000000000000E+00  0.00000000000000E+00 -3.67047448805478E-03
  0.00000000000000E+00  0.00000000000000E+00 -3.67047448805478E-03
  0.00000000000000E+00  0.00000000000000E+00 -1.90896967279228E-02
 Total energy (etotal) [Ha]= -5.20827935329612E+01

 Difference of energy with previous step (new-old):
           Absolute (Ha)=-1.41322E-04
           Relative     =-2.71341E-06

--- Iteration: ( 3/45) Internal Cycle: (1/1)
--------------------------------------------------------------------------------

---SELF-CONSISTENT-FIELD CONVERGENCE--------------------------------------------

---OUTPUT-----------------------------------------------------------------------

 Cartesian coordinates (xcart) [bohr]
  0.00000000000000E+00  0.00000000000000E+00  0.00000000000000E+00
  3.68496595912700E+00  3.68496595912700E+00  3.70483662905234E+00
  0.00000000000000E+00  3.68496595912700E+00  3.68516090773432E+00
  3.68496595912700E+00  0.00000000000000E+00  3.68516090773433E+00
  3.68496595912700E+00  3.68496595912700E+00  1.44245730850861E-02
 Reduced coordinates (xred)
  0.00000000000000E+00  0.00000000000000E+00  0.00000000000000E+00
  5.00000000000000E-01  5.00000000000000E-01  5.02696180934334E-01
  0.00000000000000E+00  5.00000000000000E-01  5.00026451887139E-01
  5.00000000000000E-01  0.00000000000000E+00  5.00026451887139E-01
  5.00000000000000E-01  5.00000000000000E-01  1.95721931288931E-03
 Cartesian forces (fcart) [Ha/bohr]; max,rms= 1.36831E-03 6.33877E-04 (free atoms)
  0.00000000000000E+00  0.00000000000000E+00  6.79130021761720E-04
  0.00000000000000E+00  0.00000000000000E+00 -1.36830600763586E-03
  0.00000000000000E+00  0.00000000000000E+00  9.11758154257290E-04
  0.00000000000000E+00  0.00000000000000E+00  9.11758154257290E-04
  0.00000000000000E+00  0.00000000000000E+00 -1.13434032264044E-03
 Reduced forces (fred)
  0.00000000000000E+00  0.00000000000000E+00 -4.97618184666766E-03
  0.00000000000000E+00  0.00000000000000E+00  1.01132822969728E-02
  0.00000000000000E+00  0.00000000000000E+00 -6.69063534543058E-03
  0.00000000000000E+00  0.00000000000000E+00 -6.69063534543058E-03
  0.00000000000000E+00  0.00000000000000E+00  8.38897112734894E-03
 Total energy (etotal) [Ha]= -5.20828182294749E+01

 Difference of energy with previous step (new-old):
           Absolute (Ha)=-2.46965E-05
           Relative     =-4.74178E-07

--- Iteration: ( 4/45) Internal Cycle: (1/1)
--------------------------------------------------------------------------------

---SELF-CONSISTENT-FIELD CONVERGENCE--------------------------------------------

---OUTPUT-----------------------------------------------------------------------

 Cartesian coordinates (xcart) [bohr]
  0.00000000000000E+00  0.00000000000000E+00  0.00000000000000E+00
  3.68496595912700E+00  3.68496595912700E+00  3.70198129988518E+00
  0.00000000000000E+00  3.68496595912700E+00  3.68630913951667E+00
  3.68496595912700E+00  0.00000000000000E+00  3.68630913951667E+00
  3.68496595912700E+00  3.68496595912700E+00  1.39929955366840E-02
 Reduced coordinates (xred)
  0.00000000000000E+00  0.00000000000000E+00  0.00000000000000E+00
  5.00000000000000E-01  5.00000000000000E-01  5.02308751416826E-01
  0.00000000000000E+00  5.00000000000000E-01  5.00182251397240E-01
  5.00000000000000E-01  0.00000000000000E+00  5.00182251397240E-01
  5.00000000000000E-01  5.00000000000000E-01  1.89866008151661E-03
 Cartesian forces (fcart) [Ha/bohr]; max,rms= 1.62818E-03 6.36674E-04 (free atoms)
  0.00000000000000E+00  0.00000000000000E+00  5.81501117533421E-04
  0.00000000000000E+00  0.00000000000000E+00 -7.61088048557712E-04
  0.00000000000000E+00  0.00000000000000E+00  9.03883748739099E-04
  0.00000000000000E+00  0.00000000000000E+00  9.03883748739099E-04
  0.00000000000000E+00  0.00000000000000E+00 -1.62818056645391E-03
 Reduced forces (fred)
  0.00000000000000E+00  0.00000000000000E+00 -4.40866312827741E-03
  0.00000000000000E+00  0.00000000000000E+00  5.48612761999966E-03
  0.00000000000000E+00  0.00000000000000E+00 -6.78460117189085E-03
  0.00000000000000E+00  0.00000000000000E+00 -6.78460117189085E-03
  0.00000000000000E+00  0.00000000000000E+00  1.18765404437221E-02
 Total energy (etotal) [Ha]= -5.20828238962085E+01

 Difference of energy with previous step (new-old):
           Absolute (Ha)=-5.66673E-06
           Relative     =-1.08802E-07

--- Iteration: ( 5/45) Internal Cycle: (1/1)
--------------------------------------------------------------------------------

---SELF-CONSISTENT-FIELD CONVERGENCE--------------------------------------------

---OUTPUT-----------------------------------------------------------------------

 Cartesian coordinates (xcart) [bohr]
  0.00000000000000E+00  0.00000000000000E+00  0.00000000000000E+00
  3.68496595912700E+00  3.68496595912700E+00  3.68956967516378E+00
  0.00000000000000E+00  3.68496595912700E+00  3.69272246575453E+00
  3.68496595912700E+00  0.00000000000000E+00  3.69272246575453E+00
  3.68496595912700E+00  3.68496595912700E+00  8.55402098547850E-03
 Reduced coordinates (xred)
  0.00000000000000E+00  0.00000000000000E+00  0.00000000000000E+00
  5.00000000000000E-01  5.00000000000000E-01  5.00624661949098E-01
  0.00000000000000E+00  5.00000000000000E-01  5.01052452955272E-01
  5.00000000000000E-01  0.00000000000000E+00  5.01052452955272E-01
  5.00000000000000E-01  5.00000000000000E-01  1.16066485828610E-03
 Cartesian forces (fcart) [Ha/bohr]; max,rms= 1.34486E-03 4.75281E-04 (free atoms)
  0.00000000000000E+00  0.00000000000000E+00  1.85031653900018E-04
  0.00000000000000E+00  0.00000000000000E+00  9.36557122788285E-04
  0.00000000000000E+00  0.00000000000000E+00  1.11634134370247E-04
  0.00000000000000E+00  0.00000000000000E+00  1.11634134370247E-04
  0.00000000000000E+00  0.00000000000000E+00 -1.34485704542880E-03
 Reduced forces (fred)
  0.00000000000000E+00  0.00000000000000E+00 -1.53899053863865E-03
  0.00000000000000E+00  0.00000000000000E+00 -7.07768207917910E-03
  0.00000000000000E+00  0.00000000000000E+00 -9.98055816735518E-04
  0.00000000000000E+00  0.00000000000000E+00 -9.98055816735518E-04
  0.00000000000000E+00  0.00000000000000E+00  9.73618501792091E-03
 Total energy (etotal) [Ha]= -5.20828373505530E+01

 Difference of energy with previous step (new-old):
           Absolute (Ha)=-1.34543E-05
           Relative     =-2.58326E-07

--- Iteration: ( 6/45) Internal Cycle: (1/1)
--------------------------------------------------------------------------------

---SELF-CONSISTENT-FIELD CONVERGENCE--------------------------------------------

---OUTPUT-----------------------------------------------------------------------

 Cartesian coordinates (xcart) [bohr]
  0.00000000000000E+00  0.00000000000000E+00  0.00000000000000E+00
  3.68496595912700E+00  3.68496595912700E+00  3.69110218744113E+00
  0.00000000000000E+00  3.68496595912700E+00  3.69240947255491E+00
  3.68496595912700E+00  0.00000000000000E+00  3.69240947255491E+00
  3.68496595912700E+00  3.68496595912700E+00  7.77773702871746E-03
 Reduced coordinates (xred)
  0.00000000000000E+00  0.00000000000000E+00  0.00000000000000E+00
  5.00000000000000E-01  5.00000000000000E-01  5.00832603120651E-01
  0.00000000000000E+00  5.00000000000000E-01  5.01009984014842E-01
  5.00000000000000E-01  0.00000000000000E+00  5.01009984014842E-01
  5.00000000000000E-01  5.00000000000000E-01  1.05533363333430E-03
 Cartesian forces (fcart) [Ha/bohr]; max,rms= 5.74283E-04 1.78167E-04 (free atoms)
  0.00000000000000E+00  0.00000000000000E+00  2.44578327530549E-04
  0.00000000000000E+00  0.00000000000000E+00  2.09524013485253E-04
  0.00000000000000E+00  0.00000000000000E+00  6.00904500175959E-05
  0.00000000000000E+00  0.00000000000000E+00  6.00904500175959E-05
  0.00000000000000E+00  0.00000000000000E+00 -5.74283241050993E-04
 Reduced forces (fred)
  0.00000000000000E+00  0.00000000000000E+00 -1.77484810504993E-03
  0.00000000000000E+00  0.00000000000000E+00 -1.51650019709500E-03
  0.00000000000000E+00  0.00000000000000E+00 -4.15185008036282E-04
  0.00000000000000E+00  0.00000000000000E+00 -4.15185008036282E-04
  0.00000000000000E+00  0.00000000000000E+00  4.26010590587072E-03
 Total energy (etotal) [Ha]= -5.20828390150963E+01

 Difference of energy with previous step (new-old):
           Absolute (Ha)=-1.66454E-06
           Relative     =-3.19595E-08

--- Iteration: ( 7/45) Internal Cycle: (1/1)
--------------------------------------------------------------------------------

---SELF-CONSISTENT-FIELD CONVERGENCE--------------------------------------------

---OUTPUT-----------------------------------------------------------------------

 Cartesian coordinates (xcart) [bohr]
  0.00000000000000E+00  0.00000000000000E+00  0.00000000000000E+00
  3.68496595912700E+00  3.68496595912700E+00  3.69081625604401E+00
  0.00000000000000E+00  3.68496595912700E+00  3.69281037029246E+00
  3.68496595912700E+00  0.00000000000000E+00  3.69281037029246E+00
  3.68496595912700E+00  3.68496595912700E+00  6.61517053603415E-03
 Reduced coordinates (xred)
  0.00000000000000E+00  0.00000000000000E+00  0.00000000000000E+00
  5.00000000000000E-01  5.00000000000000E-01  5.00793806100503E-01
  0.00000000000000E+00  5.00000000000000E-01  5.01064380411171E-01
  5.00000000000000E-01  0.00000000000000E+00  5.01064380411171E-01
  5.00000000000000E-01  5.00000000000000E-01  8.97589097078299E-04
 Cartesian forces (fcart) [Ha/bohr]; max,rms= 1.17476E-04 3.80891E-05 (free atoms)
  0.00000000000000E+00  0.00000000000000E+00  2.12034644854858E-04
  0.00000000000000E+00  0.00000000000000E+00 -1.10524708621916E-05
  0.00000000000000E+00  0.00000000000000E+00 -4.17531730766197E-05
  0.00000000000000E+00  0.00000000000000E+00 -4.17531730766197E-05
  0.00000000000000E+00  0.00000000000000E+00 -1.17475827839427E-04
 Reduced forces (fred)
  0.00000000000000E+00  0.00000000000000E+00 -1.59272718514944E-03
  0.00000000000000E+00  0.00000000000000E+00  5.14096695248669E-05
  0.00000000000000E+00  0.00000000000000E+00  2.77671754687792E-04
  0.00000000000000E+00  0.00000000000000E+00  2.77671754687792E-04
  0.00000000000000E+00  0.00000000000000E+00  8.35742564959134E-04
 Total energy (etotal) [Ha]= -5.20828393784016E+01

 Difference of energy with previous step (new-old):
           Absolute (Ha)=-3.63305E-07
           Relative     =-6.97553E-09

--- Iteration: ( 8/45) Internal Cycle: (1/1)
--------------------------------------------------------------------------------

---SELF-CONSISTENT-FIELD CONVERGENCE--------------------------------------------

---OUTPUT-----------------------------------------------------------------------

 Cartesian coordinates (xcart) [bohr]
  0.00000000000000E+00  0.00000000000000E+00  0.00000000000000E+00
  3.68496595912700E+00  3.68496595912700E+00  3.69070095645345E+00
  0.00000000000000E+00  3.68496595912700E+00  3.69283587976734E+00
  3.68496595912700E+00  0.00000000000000E+00  3.69283587976734E+00
  3.68496595912700E+00  3.68496595912700E+00  6.33826472338949E-03
 Reduced coordinates (xred)
  0.00000000000000E+00  0.00000000000000E+00  0.00000000000000E+00
  5.00000000000000E-01  5.00000000000000E-01  5.00778161506790E-01
  0.00000000000000E+00  5.00000000000000E-01  5.01067841701610E-01
  5.00000000000000E-01  0.00000000000000E+00  5.01067841701610E-01
  5.00000000000000E-01  5.00000000000000E-01  8.60016726571210E-04
 Cartesian forces (fcart) [Ha/bohr]; max,rms= 3.73048E-03 1.37492E-03 (free atoms)
  0.00000000000000E+00  0.00000000000000E+00  6.08405510396532E-04
  0.00000000000000E+00  0.00000000000000E+00 -1.57068677966990E-04
  0.00000000000000E+00  0.00000000000000E+00 -2.09090935573085E-03
  0.00000000000000E+00  0.00000000000000E+00 -2.09090935573085E-03
  0.00000000000000E+00  0.00000000000000E+00  3.73048187903216E-03
 Reduced forces (fred)
  0.00000000000000E+00  0.00000000000000E+00 -2.10656996450316E-03
  0.00000000000000E+00  0.00000000000000E+00  3.53492268891673E-03
  0.00000000000000E+00  0.00000000000000E+00  1.77871968247866E-02
  0.00000000000000E+00  0.00000000000000E+00  1.77871968247866E-02
  0.00000000000000E+00  0.00000000000000E+00 -2.51160602449374E-02
 Total energy (etotal) [Ha]= -5.20828380212882E+01

 Difference of energy with previous step (new-old):
           Absolute (Ha)= 1.35711E-06
           Relative     = 2.60568E-08

--- Iteration: ( 9/45) Internal Cycle: (1/1)
--------------------------------------------------------------------------------

---SELF-CONSISTENT-FIELD CONVERGENCE--------------------------------------------

---OUTPUT-----------------------------------------------------------------------

 Cartesian coordinates (xcart) [bohr]
  0.00000000000000E+00  0.00000000000000E+00  0.00000000000000E+00
  3.68496595912700E+00  3.68496595912700E+00  3.69092016933448E+00
  0.00000000000000E+00  3.68496595912700E+00  3.69260023943243E+00
  3.68496595912700E+00  0.00000000000000E+00  3.69260023943243E+00
  3.68496595912700E+00  3.68496595912700E+00  6.38707999393538E-03
 Reduced coordinates (xred)
  0.00000000000000E+00  0.00000000000000E+00  0.00000000000000E+00
  5.00000000000000E-01  5.00000000000000E-01  5.00807905727423E-01
  0.00000000000000E+00  5.00000000000000E-01  5.01035868497851E-01
  5.00000000000000E-01  0.00000000000000E+00  5.01035868497851E-01
  5.00000000000000E-01  5.00000000000000E-01  8.66640298008143E-04
 Cartesian forces (fcart) [Ha/bohr]; max,rms= 1.79979E-03 8.35449E-04 (free atoms)
  0.00000000000000E+00  0.00000000000000E+00  2.01275414087227E-03
  0.00000000000000E+00  0.00000000000000E+00  1.77677283800107E-03
  0.00000000000000E+00  0.00000000000000E+00 -9.94867473626849E-04
  0.00000000000000E+00  0.00000000000000E+00 -9.94867473626849E-04
  0.00000000000000E+00  0.00000000000000E+00 -1.79979203161964E-03
 Reduced forces (fred)
  0.00000000000000E+00  0.00000000000000E+00 -1.90717233499697E-03
  0.00000000000000E+00  0.00000000000000E+00 -1.68006198855334E-04
  0.00000000000000E+00  0.00000000000000E+00  2.02587941997307E-02
  0.00000000000000E+00  0.00000000000000E+00  2.02587941997307E-02
  0.00000000000000E+00  0.00000000000000E+00  2.61910333914683E-02
 Total energy (etotal) [Ha]= -5.20828343256323E+01

 Difference of energy with previous step (new-old):
           Absolute (Ha)= 3.69566E-06
           Relative     = 7.09573E-08

--- Iteration: (10/45) Internal Cycle: (1/1)
--------------------------------------------------------------------------------

---SELF-CONSISTENT-FIELD CONVERGENCE--------------------------------------------

---OUTPUT-----------------------------------------------------------------------

 Cartesian coordinates (xcart) [bohr]
  0.00000000000000E+00  0.00000000000000E+00  0.00000000000000E+00
  3.68496595912700E+00  3.68496595912700E+00  3.77234094249494E+00
  0.00000000000000E+00  3.68496595912700E+00  3.61112866730443E+00
  3.68496595912700E+00  0.00000000000000E+00  3.61112866730444E+00
  3.68496595912700E+00  3.68496595912700E+00  2.70423471931057E-03
 Reduced coordinates (xred)
  0.00000000000000E+00  0.00000000000000E+00  0.00000000000000E+00
  5.00000000000000E-01  5.00000000000000E-01  5.11855602512626E-01
  0.00000000000000E+00  5.00000000000000E-01  4.89981278980381E-01
  5.00000000000000E-01  0.00000000000000E+00  4.89981278980382E-01
  5.00000000000000E-01  5.00000000000000E-01  3.66928046188957E-04
 Cartesian forces (fcart) [Ha/bohr]; max,rms= 2.02348E+00 6.49291E-01 (free atoms)
  0.00000000000000E+00  0.00000000000000E+00  3.39959748641529E-01
  0.00000000000000E+00  0.00000000000000E+00  6.75851078702998E-01
  0.00000000000000E+00  0.00000000000000E+00  5.03834407146258E-01
  0.00000000000000E+00  0.00000000000000E+00  5.03834407146258E-01
  0.00000000000000E+00  0.00000000000000E+00 -2.02347964163704E+00
 Reduced forces (fred)
  0.00000000000000E+00  0.00000000000000E+00  1.36063970475127E-01
  0.00000000000000E+00  0.00000000000000E+00 -2.33943226400969E+00
  0.00000000000000E+00  0.00000000000000E+00 -1.07168110583186E+00
  0.00000000000000E+00  0.00000000000000E+00 -1.07168110583186E+00
  0.00000000000000E+00  0.00000000000000E+00  1.75544513697480E+01
 Total energy (etotal) [Ha]= -5.01311546812587E+01

 Difference of energy with previous step (new-old):
           Absolute (Ha)= 1.95168E+00
           Relative     = 3.81881E-02

--- Iteration: (11/45) Internal Cycle: (1/1)
--------------------------------------------------------------------------------

---SELF-CONSISTENT-FIELD CONVERGENCE--------------------------------------------

---OUTPUT-----------------------------------------------------------------------

 Cartesian coordinates (xcart) [bohr]
  0.00000000000000E+00  0.00000000000000E+00  0.00000000000000E+00
  3.68496595912700E+00  3.68496595912700E+00  3.69662940543749E+00
  0.00000000000000E+00  3.68496595912700E+00  3.68821972430690E+00
  3.68496595912700E+00  0.00000000000000E+00  3.68821972430690E+00
  3.68496595912700E+00  3.68496595912700E+00  6.25799240600221E-03
 Reduced coordinates (xred)
  0.00000000000000E+00  0.00000000000000E+00  0.00000000000000E+00
  5.00000000000000E-01  5.00000000000000E-01  5.01582571784904E-01
  0.00000000000000E+00  5.00000000000000E-01  5.00441491891104E-01
  5.00000000000000E-01  0.00000000000000E+00  5.00441491891104E-01
  5.00000000000000E-01  5.00000000000000E-01  8.49124859688632E-04
 Cartesian forces (fcart) [Ha/bohr]; max,rms= 3.93513E-02 1.91906E-02 (free atoms)
  0.00000000000000E+00  0.00000000000000E+00 -2.73519282407811E-02
  0.00000000000000E+00  0.00000000000000E+00 -2.42852029658578E-02
  0.00000000000000E+00  0.00000000000000E+00  3.93513082575151E-02
  0.00000000000000E+00  0.00000000000000E+00  3.93513082575151E-02
  0.00000000000000E+00  0.00000000000000E+00 -2.70654853083913E-02
 Reduced forces (fred)
  0.00000000000000E+00  0.00000000000000E+00  8.68267625011006E-03
  0.00000000000000E+00  0.00000000000000E+00 -1.39188802380632E-02
  0.00000000000000E+00  0.00000000000000E+00 -4.82915635469529E-01
  0.00000000000000E+00  0.00000000000000E+00 -4.82915635469529E-01
  0.00000000000000E+00  0.00000000000000E+00  6.57161133993226E-03
 Total energy (etotal) [Ha]= -5.20825425118747E+01

 Difference of energy with previous step (new-old):
           Absolute (Ha)=-1.95139E+00
           Relative     =-3.81825E-02

--- Iteration: (12/45) Internal Cycle: (1/1)
--------------------------------------------------------------------------------

---SELF-CONSISTENT-FIELD CONVERGENCE--------------------------------------------

---OUTPUT-----------------------------------------------------------------------

 Cartesian coordinates (xcart) [bohr]
  0.00000000000000E+00  0.00000000000000E+00  0.00000000000000E+00
  3.68496595912700E+00  3.68496595912700E+00  3.34662071021761E+00
  0.00000000000000E+00  3.68496595912700E+00  3.96980690651587E+00
  3.68496595912700E+00  0.00000000000000E+00  3.96980690651587E+00
  3.68496595912700E+00  3.68496595912700E+00  1.06265417799059E-02
 Reduced coordinates (xred)
  0.00000000000000E+00  0.00000000000000E+00  0.00000000000000E+00
  5.00000000000000E-01  5.00000000000000E-01  4.54091129651907E-01
  0.00000000000000E+00  5.00000000000000E-01  5.38649060879838E-01
  5.00000000000000E-01  0.00000000000000E+00  5.38649060879839E-01
  5.00000000000000E-01  5.00000000000000E-01  1.44187787591170E-03
 Cartesian forces (fcart) [Ha/bohr]; max,rms= 2.45744E+00 1.18802E+00 (free atoms)
  0.00000000000000E+00  0.00000000000000E+00  1.81172082578656E+00
  0.00000000000000E+00  0.00000000000000E+00  1.69985143193199E+00
  0.00000000000000E+00  0.00000000000000E+00 -2.45743986676759E+00
  0.00000000000000E+00  0.00000000000000E+00 -2.45743986676759E+00
  0.00000000000000E+00  0.00000000000000E+00  1.40330747581662E+00
 Reduced forces (fred)
  0.00000000000000E+00  0.00000000000000E+00 -6.97046080626092E-01
  0.00000000000000E+00  0.00000000000000E+00  1.27423735818463E-01
  0.00000000000000E+00  0.00000000000000E+00  3.07663775715841E+01
  0.00000000000000E+00  0.00000000000000E+00  3.07663775715841E+01
  0.00000000000000E+00  0.00000000000000E+00  2.31293250315841E+00
 Total energy (etotal) [Ha]= -5.08039486249555E+01

 Difference of energy with previous step (new-old):
           Absolute (Ha)= 1.27859E+00
           Relative     = 2.48545E-02

--- Iteration: (13/45) Internal Cycle: (1/1)
--------------------------------------------------------------------------------

---SELF-CONSISTENT-FIELD CONVERGENCE--------------------------------------------

---OUTPUT-----------------------------------------------------------------------

 Cartesian coordinates (xcart) [bohr]
  0.00000000000000E+00  0.00000000000000E+00  0.00000000000000E+00
  3.68496595912700E+00  3.68496595912700E+00  3.69150664250985E+00
  0.00000000000000E+00  3.68496595912700E+00  3.69261807719748E+00
  3.68496595912700E+00  0.00000000000000E+00  3.69261807719748E+00
  3.68496595912700E+00  3.68496595912700E+00  6.43447594892053E-03
 Reduced coordinates (xred)
  0.00000000000000E+00  0.00000000000000E+00  0.00000000000000E+00
  5.00000000000000E-01  5.00000000000000E-01  5.00887482198669E-01
  0.00000000000000E+00  5.00000000000000E-01  5.01038288841112E-01
  5.00000000000000E-01  0.00000000000000E+00  5.01038288841112E-01
  5.00000000000000E-01  5.00000000000000E-01  8.73071287535707E-04
 Cartesian forces (fcart) [Ha/bohr]; max,rms= 7.05800E-03 2.37194E-03 (free atoms)
  0.00000000000000E+00  0.00000000000000E+00  4.09893932289017E-03
  0.00000000000000E+00  0.00000000000000E+00  4.12529184210536E-03
  0.00000000000000E+00  0.00000000000000E+00 -5.83116313445060E-04
  0.00000000000000E+00  0.00000000000000E+00 -5.83116313445060E-04
  0.00000000000000E+00  0.00000000000000E+00 -7.05799853810541E-03
 Reduced forces (fred)
  0.00000000000000E+00  0.00000000000000E+00 -2.20237548833663E-03
  0.00000000000000E+00  0.00000000000000E+00 -2.39659176082709E-03
  0.00000000000000E+00  0.00000000000000E+00  3.23040557889315E-02
  0.00000000000000E+00  0.00000000000000E+00  3.23040557889315E-02
  0.00000000000000E+00  0.00000000000000E+00  8.00234969633913E-02
 Total energy (etotal) [Ha]= -5.20828191707041E+01

 Difference of energy with previous step (new-old):
           Absolute (Ha)=-1.27887E+00
           Relative     =-2.48598E-02

--- Iteration: (14/45) Internal Cycle: (1/1)
--------------------------------------------------------------------------------

---SELF-CONSISTENT-FIELD CONVERGENCE--------------------------------------------

---OUTPUT-----------------------------------------------------------------------

 Cartesian coordinates (xcart) [bohr]
  0.00000000000000E+00  0.00000000000000E+00  0.00000000000000E+00
  3.68496595912700E+00  3.68496595912700E+00  3.69136359164305E+00
  0.00000000000000E+00  3.68496595912700E+00  3.69212326224278E+00
  3.68496595912700E+00  0.00000000000000E+00  3.69212326224278E+00
  3.68496595912700E+00  3.68496595912700E+00  6.14150617429223E-03
 Reduced coordinates (xred)
  0.00000000000000E+00  0.00000000000000E+00  0.00000000000000E+00
  5.00000000000000E-01  5.00000000000000E-01  5.00868072132417E-01
  0.00000000000000E+00  5.00000000000000E-01  5.00971149149702E-01
  5.00000000000000E-01  0.00000000000000E+00  5.00971149149702E-01
  5.00000000000000E-01  5.00000000000000E-01  8.33319254833388E-04
 Cartesian forces (fcart) [Ha/bohr]; max,rms= 2.41915E-03 8.38908E-04 (free atoms)
  0.00000000000000E+00  0.00000000000000E+00  3.57314150665047E-04
  0.00000000000000E+00  0.00000000000000E+00 -8.00697779986464E-04
  0.00000000000000E+00  0.00000000000000E+00 -9.87880739844314E-04
  0.00000000000000E+00  0.00000000000000E+00 -9.87880739844314E-04
  0.00000000000000E+00  0.00000000000000E+00  2.41914510901004E-03
 Reduced forces (fred)
  0.00000000000000E+00  0.00000000000000E+00 -2.03488091591108E-03
  0.00000000000000E+00  0.00000000000000E+00  6.49958817351644E-03
  0.00000000000000E+00  0.00000000000000E+00  7.87911384392606E-03
  0.00000000000000E+00  0.00000000000000E+00  7.87911384392606E-03
  0.00000000000000E+00  0.00000000000000E+00 -1.72304347058621E-02
 Total energy (etotal) [Ha]= -5.20828247232178E+01

 Difference of energy with previous step (new-old):
           Absolute (Ha)=-5.55251E-06
           Relative     =-1.06609E-07

--- Iteration: (15/45) Internal Cycle: (1/1)
--------------------------------------------------------------------------------

---SELF-CONSISTENT-FIELD CONVERGENCE--------------------------------------------

---OUTPUT-----------------------------------------------------------------------

 Cartesian coordinates (xcart) [bohr]
  0.00000000000000E+00  0.00000000000000E+00  0.00000000000000E+00
  3.68496595912700E+00  3.68496595912700E+00  3.69100470781453E+00
  0.00000000000000E+00  3.68496595912700E+00  3.69183291913291E+00
  3.68496595912700E+00  0.00000000000000E+00  3.69183291913291E+00
  3.68496595912700E+00  3.68496595912700E+00  5.88970672189452E-03
 Reduced coordinates (xred)
  0.00000000000000E+00  0.00000000000000E+00  0.00000000000000E+00
  5.00000000000000E-01  5.00000000000000E-01  5.00819376454831E-01
  0.00000000000000E+00  5.00000000000000E-01  5.00931753519853E-01
  5.00000000000000E-01  0.00000000000000E+00  5.00931753519853E-01
  5.00000000000000E-01  5.00000000000000E-01  7.99153477565615E-04
 Cartesian forces (fcart) [Ha/bohr]; max,rms= 3.03685E-03 1.24310E-03 (free atoms)
  0.00000000000000E+00  0.00000000000000E+00 -4.48703463943032E-04
  0.00000000000000E+00  0.00000000000000E+00 -7.12791042092519E-04
  0.00000000000000E+00  0.00000000000000E+00  2.09917084149662E-03
  0.00000000000000E+00  0.00000000000000E+00  2.09917084149662E-03
  0.00000000000000E+00  0.00000000000000E+00 -3.03684717695769E-03
 Reduced forces (fred)
  0.00000000000000E+00  0.00000000000000E+00 -1.13619272973743E-03
  0.00000000000000E+00  0.00000000000000E+00  8.10114741680879E-04
  0.00000000000000E+00  0.00000000000000E+00 -1.99138528970964E-02
  0.00000000000000E+00  0.00000000000000E+00 -1.99138528970964E-02
  0.00000000000000E+00  0.00000000000000E+00  1.79382502298377E-02
 Total energy (etotal) [Ha]= -5.20828302134416E+01

 Difference of energy with previous step (new-old):
           Absolute (Ha)=-5.49022E-06
           Relative     =-1.05413E-07

--- Iteration: (16/45) Internal Cycle: (1/1)
--------------------------------------------------------------------------------

---SELF-CONSISTENT-FIELD CONVERGENCE--------------------------------------------

---OUTPUT-----------------------------------------------------------------------

 Cartesian coordinates (xcart) [bohr]
  0.00000000000000E+00  0.00000000000000E+00  0.00000000000000E+00
  3.68496595912700E+00  3.68496595912700E+00  3.69038297639418E+00
  0.00000000000000E+00  3.68496595912700E+00  3.69158264426503E+00
  3.68496595912700E+00  0.00000000000000E+00  3.69158264426503E+00
  3.68496595912700E+00  3.68496595912700E+00  5.56009643538384E-03
 Reduced coordinates (xred)
  0.00000000000000E+00  0.00000000000000E+00  0.00000000000000E+00
  5.00000000000000E-01  5.00000000000000E-01  5.00735015917007E-01
  0.00000000000000E+00  5.00000000000000E-01  5.00897794608066E-01
  5.00000000000000E-01  0.00000000000000E+00  5.00897794608067E-01
  5.00000000000000E-01  5.00000000000000E-01  7.54429823376315E-04
 Cartesian forces (fcart) [Ha/bohr]; max,rms= 4.42521E-03 2.19914E-03 (free atoms)
  0.00000000000000E+00  0.00000000000000E+00 -2.81767127511971E-03
  0.00000000000000E+00  0.00000000000000E+00 -2.43650501549556E-03
  0.00000000000000E+00  0.00000000000000E+00  4.42521488453033E-03
  0.00000000000000E+00  0.00000000000000E+00  4.42521488453033E-03
  0.00000000000000E+00  0.00000000000000E+00 -3.59625347844538E-03
 Reduced forces (fred)
  0.00000000000000E+00  0.00000000000000E+00 -8.82700524624966E-05
  0.00000000000000E+00  0.00000000000000E+00 -2.89743943542799E-03
  0.00000000000000E+00  0.00000000000000E+00 -5.34678479407475E-02
  0.00000000000000E+00  0.00000000000000E+00 -5.34678479407475E-02
  0.00000000000000E+00  0.00000000000000E+00  5.64982777881187E-03
 Total energy (etotal) [Ha]= -5.20828239080196E+01

 Difference of energy with previous step (new-old):
           Absolute (Ha)= 6.30542E-06
           Relative     = 1.21065E-07

--- Iteration: (17/45) Internal Cycle: (1/1)
--------------------------------------------------------------------------------

---SELF-CONSISTENT-FIELD CONVERGENCE--------------------------------------------

---OUTPUT-----------------------------------------------------------------------

 Cartesian coordinates (xcart) [bohr]
  0.00000000000000E+00  0.00000000000000E+00  0.00000000000000E+00
  3.68496595912700E+00  3.68496595912700E+00  3.66174866845123E+00
  0.00000000000000E+00  3.68496595912700E+00  3.67898119035789E+00
  3.68496595912700E+00  0.00000000000000E+00  3.67898119035789E+00
  3.68496595912700E+00  3.68496595912700E+00 -1.01360856115090E-02
 Reduced coordinates (xred)
  0.00000000000000E+00  0.00000000000000E+00  0.00000000000000E+00
  5.00000000000000E-01  5.00000000000000E-01  4.96849727930557E-01
  0.00000000000000E+00  5.00000000000000E-01  4.99187947889411E-01
  5.00000000000000E-01  0.00000000000000E+00  4.99187947889411E-01
  5.00000000000000E-01  5.00000000000000E-01 -1.37532961280195E-03
 Cartesian forces (fcart) [Ha/bohr]; max,rms= 1.19919E-01 5.47135E-02 (free atoms)
  0.00000000000000E+00  0.00000000000000E+00 -1.31101738053371E-01
  0.00000000000000E+00  0.00000000000000E+00 -1.19919250194228E-01
  0.00000000000000E+00  0.00000000000000E+00  9.31461934908095E-02
  0.00000000000000E+00  0.00000000000000E+00  9.31461934908095E-02
  0.00000000000000E+00  0.00000000000000E+00  6.47286012659795E-02
 Reduced forces (fred)
  0.00000000000000E+00  0.00000000000000E+00  4.31549710749095E-02
  0.00000000000000E+00  0.00000000000000E+00 -3.92592031236737E-02
  0.00000000000000E+00  0.00000000000000E+00 -1.60953701721498E+00
  0.00000000000000E+00  0.00000000000000E+00 -1.60953701721498E+00
  0.00000000000000E+00  0.00000000000000E+00 -1.40010129723728E+00
 Total energy (etotal) [Ha]= -5.20781084735013E+01

 Difference of energy with previous step (new-old):
           Absolute (Ha)= 4.71543E-03
           Relative     = 9.05413E-05

--- Iteration: (18/45) Internal Cycle: (1/1)
--------------------------------------------------------------------------------

---SELF-CONSISTENT-FIELD CONVERGENCE--------------------------------------------

---OUTPUT-----------------------------------------------------------------------

 Cartesian coordinates (xcart) [bohr]
  0.00000000000000E+00  0.00000000000000E+00  0.00000000000000E+00
  3.68496595912700E+00  3.68496595912700E+00  3.72135996240144E+00
  0.00000000000000E+00  3.68496595912700E+00  3.70545088742740E+00
  3.68496595912700E+00  0.00000000000000E+00  3.70545088742740E+00
  3.68496595912700E+00  3.68496595912700E+00  2.25929367774362E-02
 Reduced coordinates (xred)
  0.00000000000000E+00  0.00000000000000E+00  0.00000000000000E+00
  5.00000000000000E-01  5.00000000000000E-01  5.04938173605687E-01
  0.00000000000000E+00  5.00000000000000E-01  5.02779527481069E-01
  5.00000000000000E-01  0.00000000000000E+00  5.02779527481069E-01
  5.00000000000000E-01  5.00000000000000E-01  3.06555569685488E-03
 Cartesian forces (fcart) [Ha/bohr]; max,rms= 1.27393E-01 5.73547E-02 (free atoms)
  0.00000000000000E+00  0.00000000000000E+00  1.36677154195128E-01
  0.00000000000000E+00  0.00000000000000E+00  1.27393336713730E-01
  0.00000000000000E+00  0.00000000000000E+00 -8.84801233191953E-02
  0.00000000000000E+00  0.00000000000000E+00 -8.84801233191953E-02
  0.00000000000000E+00  0.00000000000000E+00 -8.71102442704675E-02
 Reduced forces (fred)
  0.00000000000000E+00  0.00000000000000E+00 -4.52951225035358E-02
  0.00000000000000E+00  0.00000000000000E+00  2.31259802758693E-02
  0.00000000000000E+00  0.00000000000000E+00  1.61409868367645E+00
  0.00000000000000E+00  0.00000000000000E+00  1.61409868367645E+00
  0.00000000000000E+00  0.00000000000000E+00  1.60400276835109E+00
 Total energy (etotal) [Ha]= -5.20774936293030E+01

 Difference of energy with previous step (new-old):
           Absolute (Ha)= 6.14844E-04
           Relative     = 1.18063E-05

--- Iteration: (19/45) Internal Cycle: (1/1)
--------------------------------------------------------------------------------

---SELF-CONSISTENT-FIELD CONVERGENCE--------------------------------------------

---OUTPUT-----------------------------------------------------------------------

 Cartesian coordinates (xcart) [bohr]
  0.00000000000000E+00  0.00000000000000E+00  0.00000000000000E+00
  3.68496595912700E+00  3.68496595912700E+00  3.71555198024664E+00
  0.00000000000000E+00  3.68496595912700E+00  3.70298831728856E+00
  3.68496595912700E+00  0.00000000000000E+00  3.70298831728856E+00
  3.68496595912700E+00  3.68496595912700E+00  1.94126727543201E-02
 Reduced coordinates (xred)
  0.00000000000000E+00  0.00000000000000E+00  0.00000000000000E+00
  5.00000000000000E-01  5.00000000000000E-01  5.04150109045632E-01
  0.00000000000000E+00  5.00000000000000E-01  5.02445390047216E-01
  5.00000000000000E-01  0.00000000000000E+00  5.02445390047216E-01
  5.00000000000000E-01  5.00000000000000E-01  2.63403691779546E-03
 Cartesian forces (fcart) [Ha/bohr]; max,rms= 1.20809E-01 5.44387E-02 (free atoms)
  0.00000000000000E+00  0.00000000000000E+00  1.29631185404244E-01
  0.00000000000000E+00  0.00000000000000E+00  1.20808542085534E-01
  0.00000000000000E+00  0.00000000000000E+00 -8.66799757576752E-02
  0.00000000000000E+00  0.00000000000000E+00 -8.66799757576752E-02
  0.00000000000000E+00  0.00000000000000E+00 -7.70797759744282E-02
 Reduced forces (fred)
  0.00000000000000E+00  0.00000000000000E+00 -4.35305162782609E-02
  0.00000000000000E+00  0.00000000000000E+00  2.14917643196722E-02
  0.00000000000000E+00  0.00000000000000E+00  1.55066801464356E+00
  0.00000000000000E+00  0.00000000000000E+00  1.55066801464356E+00
  0.00000000000000E+00  0.00000000000000E+00  1.47991519583939E+00
 Total energy (etotal) [Ha]= -5.20766344244782E+01

 Difference of energy with previous step (new-old):
           Absolute (Ha)= 8.59205E-04
           Relative     = 1.64987E-05

--- Iteration: (20/45) Internal Cycle: (1/1)
--------------------------------------------------------------------------------

---SELF-CONSISTENT-FIELD CONVERGENCE--------------------------------------------

---OUTPUT-----------------------------------------------------------------------

 Cartesian coordinates (xcart) [bohr]
  0.00000000000000E+00  0.00000000000000E+00  0.00000000000000E+00
  3.68496595912700E+00  3.68496595912700E+00  3.67075479930668E+00
  0.00000000000000E+00  3.68496595912700E+00  3.69471161183128E+00
  3.68496595912700E+00  0.00000000000000E+00  3.69471161183128E+00
  3.68496595912700E+00  3.68496595912700E+00 -4.07305781178053E-03
 Reduced coordinates (xred)
  0.00000000000000E+00  0.00000000000000E+00  0.00000000000000E+00
  5.00000000000000E-01  5.00000000000000E-01  4.98071737978321E-01
  0.00000000000000E+00  5.00000000000000E-01  5.01322353152292E-01
  5.00000000000000E-01  0.00000000000000E+00  5.01322353152292E-01
  5.00000000000000E-01  5.00000000000000E-01 -5.52658811093260E-04
 Cartesian forces (fcart) [Ha/bohr]; max,rms= 1.34350E-01 4.76619E-02 (free atoms)
  0.00000000000000E+00  0.00000000000000E+00 -8.77160481487838E-02
  0.00000000000000E+00  0.00000000000000E+00 -9.07556139559200E-02
  0.00000000000000E+00  0.00000000000000E+00  2.20608959696832E-02
  0.00000000000000E+00  0.00000000000000E+00  2.20608959696832E-02
  0.00000000000000E+00  0.00000000000000E+00  1.34349870165337E-01
 Reduced forces (fred)
  0.00000000000000E+00  0.00000000000000E+00  2.12719804748331E-02
  0.00000000000000E+00  0.00000000000000E+00  4.36733735344802E-02
  0.00000000000000E+00  0.00000000000000E+00 -7.87776623872243E-01
  0.00000000000000E+00  0.00000000000000E+00 -7.87776623872243E-01
  0.00000000000000E+00  0.00000000000000E+00 -1.61533871886480E+00
 Total energy (etotal) [Ha]= -5.20782208578256E+01

 Difference of energy with previous step (new-old):
           Absolute (Ha)=-1.58643E-03
           Relative     =-3.04630E-05

--- Iteration: (21/45) Internal Cycle: (1/1)
--------------------------------------------------------------------------------

---SELF-CONSISTENT-FIELD CONVERGENCE--------------------------------------------

     iter   Etot(hartree)      deltaE(h)  residm     vres2
 ETOT  1  -50.519221233950    -5.052E+01 9.914E-02 9.285E+02
 ETOT  2  -51.244974830983    -7.258E-01 4.733E-02 1.416E+03
 ETOT  3  -52.028306031573    -7.833E-01 5.502E-02 1.913E+02
 ETOT  4  -52.038508874786    -1.020E-02 4.229E-02 1.821E+02
 ETOT  5  -52.028966272965     9.543E-03 1.492E-02 2.440E+02
 ETOT  6  -52.048980932534    -2.001E-02 4.370E-03 2.808E+01
 ETOT  7  -52.072485477525    -2.350E-02 2.127E-03 1.273E+01
 ETOT  8  -52.075969242399    -3.484E-03 1.445E-03 1.272E+01
 ETOT  9  -52.080491400761    -4.522E-03 1.400E-03 7.697E+00
 ETOT 10  -52.079459081915     1.032E-03 8.599E-04 8.364E+00
 ETOT 11  -52.079595926847    -1.368E-04 1.325E-03 5.115E+00
 ETOT 12  -52.080645028834    -1.049E-03 5.915E-04 3.600E+00
 ETOT 13  -52.082317689964    -1.673E-03 1.286E-03 7.656E-01
 ETOT 14  -52.082709778100    -3.921E-04 4.058E-04 1.263E-01
 ETOT 15  -52.082792434098    -8.266E-05 1.067E-03 5.330E-02
 ETOT 16  -52.082817500869    -2.507E-05 3.745E-04 8.028E-03
 ETOT 17  -52.082824543618    -7.043E-06 8.580E-04 3.331E-03
 ETOT 18  -52.082823175034     1.369E-06 3.422E-04 5.213E-03
 ETOT 19  -52.082825864947    -2.690E-06 6.733E-04 1.891E-03
 ETOT 20  -52.082826641382    -7.764E-07 3.116E-04 8.804E-04
 ETOT 21  -52.082826578654     6.273E-08 5.185E-04 1.191E-03

 At SCF step   21, etot is converged : 
  for the second time, diff in etot=  6.273E-08 < toldfe=  1.000E-06

 Cartesian components of stress tensor (hartree/bohr^3)
  sigma(1 1)=  5.97849543E-03  sigma(3 2)=  0.00000000E+00
  sigma(2 2)=  5.97849543E-03  sigma(3 1)=  0.00000000E+00
  sigma(3 3)=  5.97708858E-03  sigma(2 1)=  0.00000000E+00
 

---OUTPUT-----------------------------------------------------------------------

 Cartesian coordinates (xcart) [bohr]
  0.00000000000000E+00  0.00000000000000E+00  0.00000000000000E+00
  3.68496595912700E+00  3.68496595912700E+00  3.70283381921318E+00
  0.00000000000000E+00  3.68496595912700E+00  3.70642587905378E+00
  3.68496595912700E+00  0.00000000000000E+00  3.70642587905378E+00
  3.68496595912700E+00  3.68496595912700E+00  1.33985874871601E-02
 Reduced coordinates (xred)
  0.00000000000000E+00  0.00000000000000E+00  0.00000000000000E+00
  5.00000000000000E-01  5.00000000000000E-01  5.02424426749712E-01
  0.00000000000000E+00  5.00000000000000E-01  5.02911820647030E-01
  5.00000000000000E-01  0.00000000000000E+00  5.02911820647030E-01
  5.00000000000000E-01  5.00000000000000E-01  1.81800695525751E-03
 Cartesian forces (fcart) [Ha/bohr]; max,rms= 2.46725E-03 9.17707E-04 (free atoms)
  0.00000000000000E+00  0.00000000000000E+00  5.85372352587030E-04
  0.00000000000000E+00  0.00000000000000E+00 -1.79760474423142E-03
  0.00000000000000E+00  0.00000000000000E+00 -6.27508873583327E-04
  0.00000000000000E+00  0.00000000000000E+00 -6.27508873583327E-04
  0.00000000000000E+00  0.00000000000000E+00  2.46725013881105E-03
 Reduced forces (fred)
  0.00000000000000E+00  0.00000000000000E+00 -4.29177846834587E-03
  0.00000000000000E+00  0.00000000000000E+00  1.32706004979647E-02
  0.00000000000000E+00  0.00000000000000E+00  4.64707359345811E-03
  0.00000000000000E+00  0.00000000000000E+00  4.64707359345811E-03
  0.00000000000000E+00  0.00000000000000E+00 -1.81610896312915E-02
 Total energy (etotal) [Ha]= -5.20828265786544E+01

 Difference of energy with previous step (new-old):
           Absolute (Ha)=-4.60572E-03
           Relative     =-8.84346E-05

--- Iteration: (22/45) Internal Cycle: (1/1)
--------------------------------------------------------------------------------

---SELF-CONSISTENT-FIELD CONVERGENCE--------------------------------------------

     iter   Etot(hartree)      deltaE(h)  residm     vres2
 ETOT  1  -52.078268423828    -5.208E+01 2.321E-04 1.191E+01
 ETOT  2  -52.081150763927    -2.882E-03 1.841E-04 1.149E+00
 ETOT  3  -52.081101333012     4.943E-05 2.470E-04 7.169E-01
 ETOT  4  -52.081882246708    -7.809E-04 1.619E-04 7.761E-02
 ETOT  5  -52.081941765564    -5.952E-05 2.690E-04 4.117E-03
 ETOT  6  -52.081960514760    -1.875E-05 1.576E-04 5.043E-03
 ETOT  7  -52.081965409328    -4.895E-06 2.711E-04 1.900E-03
 ETOT  8  -52.081966812943    -1.404E-06 1.506E-04 1.144E-03
 ETOT  9  -52.081967159025    -3.461E-07 2.686E-04 4.691E-04
 ETOT 10  -52.081968002394    -8.434E-07 1.417E-04 1.984E-04

 At SCF step   10, etot is converged : 
  for the second time, diff in etot=  8.434E-07 < toldfe=  1.000E-06

 Cartesian components of stress tensor (hartree/bohr^3)
  sigma(1 1)=  5.97392286E-03  sigma(3 2)=  0.00000000E+00
  sigma(2 2)=  5.97392286E-03  sigma(3 1)=  0.00000000E+00
  sigma(3 3)=  5.97777262E-03  sigma(2 1)=  0.00000000E+00
 

---OUTPUT-----------------------------------------------------------------------

 Cartesian coordinates (xcart) [bohr]
  0.00000000000000E+00  0.00000000000000E+00  0.00000000000000E+00
  3.68496595912700E+00  3.68496595912700E+00  3.54320291453887E+00
  0.00000000000000E+00  3.68496595912700E+00  3.64576113028283E+00
  3.68496595912700E+00  0.00000000000000E+00  3.64576113028283E+00
  3.68496595912700E+00  3.68496595912700E+00 -7.36252737226217E-02
 Reduced coordinates (xred)
  0.00000000000000E+00  0.00000000000000E+00  0.00000000000000E+00
  5.00000000000000E-01  5.00000000000000E-01  4.80764673790675E-01
  0.00000000000000E+00  5.00000000000000E-01  4.94680435412563E-01
  5.00000000000000E-01  0.00000000000000E+00  4.94680435412562E-01
  5.00000000000000E-01  5.00000000000000E-01 -9.98995303338759E-03
 Cartesian forces (fcart) [Ha/bohr]; max,rms= 1.94740E-02 6.62940E-03 (free atoms)
  0.00000000000000E+00  0.00000000000000E+00 -4.39945898607200E-03
  0.00000000000000E+00  0.00000000000000E+00  1.94739793888353E-02
  0.00000000000000E+00  0.00000000000000E+00 -1.55100520459987E-03
  0.00000000000000E+00  0.00000000000000E+00 -1.55100520459987E-03
  0.00000000000000E+00  0.00000000000000E+00 -1.19725099935635E-02
 Reduced forces (fred)
  0.00000000000000E+00  0.00000000000000E+00  3.25306447298118E-02
  0.00000000000000E+00  0.00000000000000E+00 -1.43414970747887E-01
  0.00000000000000E+00  0.00000000000000E+00  1.15377342880690E-02
  0.00000000000000E+00  0.00000000000000E+00  1.15377342880690E-02
  0.00000000000000E+00  0.00000000000000E+00  8.83435150684891E-02
 Total energy (etotal) [Ha]= -5.20819680023941E+01

 Difference of energy with previous step (new-old):
           Absolute (Ha)= 8.58576E-04
           Relative     = 1.64850E-05

--- Iteration: (23/45) Internal Cycle: (1/1)
--------------------------------------------------------------------------------

---SELF-CONSISTENT-FIELD CONVERGENCE--------------------------------------------

     iter   Etot(hartree)      deltaE(h)  residm     vres2
 ETOT  1  -52.079639968605    -5.208E+01 2.408E-04 6.924E+00
 ETOT  2  -52.082417246475    -2.777E-03 2.346E-04 5.753E-01
 ETOT  3  -52.082551903526    -1.347E-04 1.515E-04 2.171E-01
 ETOT  4  -52.082795022948    -2.431E-04 2.054E-04 3.040E-02
 ETOT  5  -52.082819400087    -2.438E-05 1.396E-04 4.583E-03
 ETOT  6  -52.082828697909    -9.298E-06 1.855E-04 2.372E-03
 ETOT  7  -52.082830795901    -2.098E-06 1.237E-04 1.125E-03
 ETOT  8  -52.082831956318    -1.160E-06 1.647E-04 5.726E-04
 ETOT  9  -52.082832244482    -2.882E-07 1.081E-04 1.486E-04
 ETOT 10  -52.082832611084    -3.666E-07 1.438E-04 7.653E-06

 At SCF step   10, etot is converged : 
  for the second time, diff in etot=  3.666E-07 < toldfe=  1.000E-06

 Cartesian components of stress tensor (hartree/bohr^3)
  sigma(1 1)=  5.97701481E-03  sigma(3 2)=  0.00000000E+00
  sigma(2 2)=  5.97701481E-03  sigma(3 1)=  0.00000000E+00
  sigma(3 3)=  5.97683385E-03  sigma(2 1)=  0.00000000E+00
 

---OUTPUT-----------------------------------------------------------------------

 Cartesian coordinates (xcart) [bohr]
  0.00000000000000E+00  0.00000000000000E+00  0.00000000000000E+00
  3.68496595912700E+00  3.68496595912700E+00  3.69115507410789E+00
  0.00000000000000E+00  3.68496595912700E+00  3.70198252786767E+00
  3.68496595912700E+00  0.00000000000000E+00  3.70198252786767E+00
  3.68496595912700E+00  3.68496595912700E+00  7.03839888675604E-03
 Reduced coordinates (xred)
  0.00000000000000E+00  0.00000000000000E+00  0.00000000000000E+00
  5.00000000000000E-01  5.00000000000000E-01  5.00839779125442E-01
  0.00000000000000E+00  5.00000000000000E-01  5.02308918037428E-01
  5.00000000000000E-01  0.00000000000000E+00  5.02308918037427E-01
  5.00000000000000E-01  5.00000000000000E-01  9.55015455342698E-04
 Cartesian forces (fcart) [Ha/bohr]; max,rms= 1.45064E-03 5.09930E-04 (free atoms)
  0.00000000000000E+00  0.00000000000000E+00  2.30112277021990E-04
  0.00000000000000E+00  0.00000000000000E+00 -3.37627861209063E-04
  0.00000000000000E+00  0.00000000000000E+00 -6.71562700257260E-04
  0.00000000000000E+00  0.00000000000000E+00 -6.71562700257260E-04
  0.00000000000000E+00  0.00000000000000E+00  1.45064098470159E-03
 Reduced forces (fred)
  0.00000000000000E+00  0.00000000000000E+00 -1.62017490707309E-03
  0.00000000000000E+00  0.00000000000000E+00  2.56403125894990E-03
  0.00000000000000E+00  0.00000000000000E+00  5.02510828786822E-03
  0.00000000000000E+00  0.00000000000000E+00  5.02510828786822E-03
  0.00000000000000E+00  0.00000000000000E+00 -1.06153883869463E-02
 Total energy (etotal) [Ha]= -5.20828326110838E+01

 Difference of energy with previous step (new-old):
           Absolute (Ha)=-8.64609E-04
           Relative     =-1.66008E-05

--- Iteration: (24/45) Internal Cycle: (1/1)
--------------------------------------------------------------------------------

---SELF-CONSISTENT-FIELD CONVERGENCE--------------------------------------------

     iter   Etot(hartree)      deltaE(h)  residm     vres2
 ETOT  1  -52.082832653507    -5.208E+01 1.226E-04 4.950E-05
 ETOT  2  -52.082832623542     2.997E-08 1.050E-04 8.032E-05
 ETOT  3  -52.082832641573    -1.803E-08 6.568E-05 2.515E-06

 At SCF step    3, etot is converged : 
  for the second time, diff in etot=  1.803E-08 < toldfe=  1.000E-06

 Cartesian components of stress tensor (hartree/bohr^3)
  sigma(1 1)=  5.97703395E-03  sigma(3 2)=  0.00000000E+00
  sigma(2 2)=  5.97703395E-03  sigma(3 1)=  0.00000000E+00
  sigma(3 3)=  5.97688246E-03  sigma(2 1)=  0.00000000E+00
 

---OUTPUT-----------------------------------------------------------------------

 Cartesian coordinates (xcart) [bohr]
  0.00000000000000E+00  0.00000000000000E+00  0.00000000000000E+00
  3.68496595912700E+00  3.68496595912700E+00  3.69044690183138E+00
  0.00000000000000E+00  3.68496595912700E+00  3.70170845067383E+00
  3.68496595912700E+00  0.00000000000000E+00  3.70170845067383E+00
  3.68496595912700E+00  3.68496595912700E+00  6.65869431018182E-03
 Reduced coordinates (xred)
  0.00000000000000E+00  0.00000000000000E+00  0.00000000000000E+00
  5.00000000000000E-01  5.00000000000000E-01  5.00743689733524E-01
  0.00000000000000E+00  5.00000000000000E-01  5.02271729472203E-01
  5.00000000000000E-01  0.00000000000000E+00  5.02271729472203E-01
  5.00000000000000E-01  5.00000000000000E-01  9.03494684081060E-04
 Cartesian forces (fcart) [Ha/bohr]; max,rms= 1.34780E-03 4.82583E-04 (free atoms)
  0.00000000000000E+00  0.00000000000000E+00  1.99938279434076E-04
  0.00000000000000E+00  0.00000000000000E+00 -1.69926751931245E-04
  0.00000000000000E+00  0.00000000000000E+00 -6.88907114684505E-04
  0.00000000000000E+00  0.00000000000000E+00 -6.88907114684505E-04
  0.00000000000000E+00  0.00000000000000E+00  1.34780270186618E-03
 Reduced forces (fred)
  0.00000000000000E+00  0.00000000000000E+00 -1.45547947752191E-03
  0.00000000000000E+00  0.00000000000000E+00  1.27040062258339E-03
  0.00000000000000E+00  0.00000000000000E+00  5.09525056298569E-03
  0.00000000000000E+00  0.00000000000000E+00  5.09525056298569E-03
  0.00000000000000E+00  0.00000000000000E+00 -9.91516212223246E-03
 Total energy (etotal) [Ha]= -5.20828326415726E+01

 Difference of energy with previous step (new-old):
           Absolute (Ha)=-3.04888E-08
           Relative     =-5.85391E-10

--- Iteration: (25/45) Internal Cycle: (1/1)
--------------------------------------------------------------------------------

---SELF-CONSISTENT-FIELD CONVERGENCE--------------------------------------------

     iter   Etot(hartree)      deltaE(h)  residm     vres2
 ETOT  1  -52.082832704288    -5.208E+01 5.560E-05 3.446E-06
 ETOT  2  -52.082832704882    -5.937E-10 4.675E-05 2.699E-06
 ETOT  3  -52.082832707120    -2.238E-09 6.252E-05 9.560E-08

 At SCF step    3, etot is converged : 
  for the second time, diff in etot=  2.238E-09 < toldfe=  1.000E-06

 Cartesian components of stress tensor (hartree/bohr^3)
  sigma(1 1)=  5.97665244E-03  sigma(3 2)=  0.00000000E+00
  sigma(2 2)=  5.97665244E-03  sigma(3 1)=  0.00000000E+00
  sigma(3 3)=  5.97663599E-03  sigma(2 1)=  0.00000000E+00
 

---OUTPUT-----------------------------------------------------------------------

 Cartesian coordinates (xcart) [bohr]
  0.00000000000000E+00  0.00000000000000E+00  0.00000000000000E+00
  3.68496595912700E+00  3.68496595912700E+00  3.69059301735905E+00
  0.00000000000000E+00  3.68496595912700E+00  3.70175802355657E+00
  3.68496595912700E+00  0.00000000000000E+00  3.70175802355657E+00
  3.68496595912700E+00  3.68496595912700E+00  6.74603657942722E-03
 Reduced coordinates (xred)
  0.00000000000000E+00  0.00000000000000E+00  0.00000000000000E+00
  5.00000000000000E-01  5.00000000000000E-01  5.00763515632771E-01
  0.00000000000000E+00  5.00000000000000E-01  5.02278455841359E-01
  5.00000000000000E-01  0.00000000000000E+00  5.02278455841359E-01
  5.00000000000000E-01  5.00000000000000E-01  9.15345847730084E-04
 Cartesian forces (fcart) [Ha/bohr]; max,rms= 1.34726E-03 4.81500E-04 (free atoms)
  0.00000000000000E+00  0.00000000000000E+00  1.99321397316280E-04
  0.00000000000000E+00  0.00000000000000E+00 -1.79192610557317E-04
  0.00000000000000E+00  0.00000000000000E+00 -6.83695991040231E-04
  0.00000000000000E+00  0.00000000000000E+00 -6.83695991040231E-04
  0.00000000000000E+00  0.00000000000000E+00  1.34726319532150E-03
 Reduced forces (fred)
  0.00000000000000E+00  0.00000000000000E+00 -1.45556940273823E-03
  0.00000000000000E+00  0.00000000000000E+00  1.33405306539564E-03
  0.00000000000000E+00  0.00000000000000E+00  5.05220863208371E-03
  0.00000000000000E+00  0.00000000000000E+00  5.05220863208371E-03
  0.00000000000000E+00  0.00000000000000E+00 -9.91582230015480E-03
 Total energy (etotal) [Ha]= -5.20828327071197E+01

 Difference of energy with previous step (new-old):
           Absolute (Ha)=-6.55472E-08
           Relative     =-1.25852E-09

--- Iteration: (26/45) Internal Cycle: (1/1)
--------------------------------------------------------------------------------

---SELF-CONSISTENT-FIELD CONVERGENCE--------------------------------------------

     iter   Etot(hartree)      deltaE(h)  residm     vres2
 ETOT  1  -52.082826057488    -5.208E+01 8.926E-05 1.104E-02
 ETOT  2  -52.082815841897     1.022E-05 6.743E-05 2.080E-02
 ETOT  3  -52.082829370801    -1.353E-05 1.834E-05 6.925E-04
 ETOT  4  -52.082832644689    -3.274E-06 5.313E-05 2.429E-04
 ETOT  5  -52.082832820322    -1.756E-07 1.475E-05 2.016E-04
 ETOT  6  -52.082832877330    -5.701E-08 4.242E-05 1.122E-04

 At SCF step    6, etot is converged : 
  for the second time, diff in etot=  5.701E-08 < toldfe=  1.000E-06

 Cartesian components of stress tensor (hartree/bohr^3)
  sigma(1 1)=  5.97507421E-03  sigma(3 2)=  0.00000000E+00
  sigma(2 2)=  5.97507421E-03  sigma(3 1)=  0.00000000E+00
  sigma(3 3)=  5.97561611E-03  sigma(2 1)=  0.00000000E+00
 

---OUTPUT-----------------------------------------------------------------------

 Cartesian coordinates (xcart) [bohr]
  0.00000000000000E+00  0.00000000000000E+00  0.00000000000000E+00
  3.68496595912700E+00  3.68496595912700E+00  3.69441503166262E+00
  0.00000000000000E+00  3.68496595912700E+00  3.70300323501446E+00
  3.68496595912700E+00  0.00000000000000E+00  3.70300323501446E+00
  3.68496595912700E+00  3.68496595912700E+00  9.09688304760111E-03
 Reduced coordinates (xred)
  0.00000000000000E+00  0.00000000000000E+00  0.00000000000000E+00
  5.00000000000000E-01  5.00000000000000E-01  5.01282111237990E-01
  0.00000000000000E+00  5.00000000000000E-01  5.02447414180690E-01
  5.00000000000000E-01  0.00000000000000E+00  5.02447414180690E-01
  5.00000000000000E-01  5.00000000000000E-01  1.23432389179468E-03
 Cartesian forces (fcart) [Ha/bohr]; max,rms= 1.54461E-03 5.44563E-04 (free atoms)
  0.00000000000000E+00  0.00000000000000E+00  3.30967973556738E-04
  0.00000000000000E+00  0.00000000000000E+00 -6.14047442631515E-04
  0.00000000000000E+00  0.00000000000000E+00 -6.30763898201649E-04
  0.00000000000000E+00  0.00000000000000E+00 -6.30763898201649E-04
  0.00000000000000E+00  0.00000000000000E+00  1.54460726547808E-03
 Reduced forces (fred)
  0.00000000000000E+00  0.00000000000000E+00 -2.43988623729851E-03
  0.00000000000000E+00  0.00000000000000E+00  4.52481304170939E-03
  0.00000000000000E+00  0.00000000000000E+00  4.64801218117580E-03
  0.00000000000000E+00  0.00000000000000E+00  4.64801218117580E-03
  0.00000000000000E+00  0.00000000000000E+00 -1.13843251920768E-02
 Total energy (etotal) [Ha]= -5.20828328773303E+01

 Difference of energy with previous step (new-old):
           Absolute (Ha)=-1.70211E-07
           Relative     =-3.26808E-09

--- Iteration: (27/45) Internal Cycle: (1/1)
--------------------------------------------------------------------------------

---SELF-CONSISTENT-FIELD CONVERGENCE--------------------------------------------

     iter   Etot(hartree)      deltaE(h)  residm     vres2
 ETOT  1  -52.082833123986    -5.208E+01 2.924E-05 1.816E-04
 ETOT  2  -52.082832985347     1.386E-07 2.377E-05 3.143E-04
 ETOT  3  -52.082833126939    -1.416E-07 9.163E-06 1.686E-05

 At SCF step    3, etot is converged : 
  for the second time, diff in etot=  1.416E-07 < toldfe=  1.000E-06

 Cartesian components of stress tensor (hartree/bohr^3)
  sigma(1 1)=  5.97739765E-03  sigma(3 2)=  0.00000000E+00
  sigma(2 2)=  5.97739765E-03  sigma(3 1)=  0.00000000E+00
  sigma(3 3)=  5.97775941E-03  sigma(2 1)=  0.00000000E+00
 

---OUTPUT-----------------------------------------------------------------------

 Cartesian coordinates (xcart) [bohr]
  0.00000000000000E+00  0.00000000000000E+00  0.00000000000000E+00
  3.68496595912700E+00  3.68496595912700E+00  3.69342810965081E+00
  0.00000000000000E+00  3.68496595912700E+00  3.70260600645383E+00
  3.68496595912700E+00  0.00000000000000E+00  3.70260600645382E+00
  3.68496595912700E+00  3.68496595912700E+00  8.58770591873362E-03
 Reduced coordinates (xred)
  0.00000000000000E+00  0.00000000000000E+00  0.00000000000000E+00
  5.00000000000000E-01  5.00000000000000E-01  5.01148199280220E-01
  0.00000000000000E+00  5.00000000000000E-01  5.02393515642001E-01
  5.00000000000000E-01  0.00000000000000E+00  5.02393515642001E-01
  5.00000000000000E-01  5.00000000000000E-01  1.16523544776084E-03
 Cartesian forces (fcart) [Ha/bohr]; max,rms= 1.42525E-03 5.03481E-04 (free atoms)
  0.00000000000000E+00  0.00000000000000E+00  2.95423143517227E-04
  0.00000000000000E+00  0.00000000000000E+00 -4.47937570790816E-04
  0.00000000000000E+00  0.00000000000000E+00 -6.36368768827381E-04
  0.00000000000000E+00  0.00000000000000E+00 -6.36368768827381E-04
  0.00000000000000E+00  0.00000000000000E+00  1.42525196492835E-03
 Reduced forces (fred)
  0.00000000000000E+00  0.00000000000000E+00 -2.18078950887344E-03
  0.00000000000000E+00  0.00000000000000E+00  3.29772834628151E-03
  0.00000000000000E+00  0.00000000000000E+00  4.68645344708603E-03
  0.00000000000000E+00  0.00000000000000E+00  4.68645344708603E-03
  0.00000000000000E+00  0.00000000000000E+00 -1.05075510019546E-02
 Total energy (etotal) [Ha]= -5.20828331269393E+01

 Difference of energy with previous step (new-old):
           Absolute (Ha)=-2.49609E-07
           Relative     =-4.79254E-09

--- Iteration: (28/45) Internal Cycle: (1/1)
--------------------------------------------------------------------------------

---SELF-CONSISTENT-FIELD CONVERGENCE--------------------------------------------

     iter   Etot(hartree)      deltaE(h)  residm     vres2
 ETOT  1  -52.082832516385    -5.208E+01 2.047E-05 2.650E-03
 ETOT  2  -52.082831303602     1.213E-06 1.469E-05 3.553E-03
 ETOT  3  -52.082834097779    -2.794E-06 5.387E-06 3.232E-05
 ETOT  4  -52.082834208554    -1.108E-07 1.179E-05 1.705E-04
 ETOT  5  -52.082834246980    -3.843E-08 5.028E-06 8.449E-05

 At SCF step    5, etot is converged : 
  for the second time, diff in etot=  3.843E-08 < toldfe=  1.000E-06

 Cartesian components of stress tensor (hartree/bohr^3)
  sigma(1 1)=  5.97618734E-03  sigma(3 2)=  0.00000000E+00
  sigma(2 2)=  5.97618734E-03  sigma(3 1)=  0.00000000E+00
  sigma(3 3)=  5.97667879E-03  sigma(2 1)=  0.00000000E+00
 

---OUTPUT-----------------------------------------------------------------------

 Cartesian coordinates (xcart) [bohr]
  0.00000000000000E+00  0.00000000000000E+00  0.00000000000000E+00
  3.68496595912700E+00  3.68496595912700E+00  3.69163328364184E+00
  0.00000000000000E+00  3.68496595912700E+00  3.70158742351608E+00
  3.68496595912700E+00  0.00000000000000E+00  3.70158742351607E+00
  3.68496595912700E+00  3.68496595912700E+00  8.04496653817164E-03
 Reduced coordinates (xred)
  0.00000000000000E+00  0.00000000000000E+00  0.00000000000000E+00
  5.00000000000000E-01  5.00000000000000E-01  5.00904665686032E-01
  0.00000000000000E+00  5.00000000000000E-01  5.02255307725151E-01
  5.00000000000000E-01  0.00000000000000E+00  5.02255307725150E-01
  5.00000000000000E-01  5.00000000000000E-01  1.09159306047939E-03
 Cartesian forces (fcart) [Ha/bohr]; max,rms= 1.00334E-03 3.75661E-04 (free atoms)
  0.00000000000000E+00  0.00000000000000E+00  2.45055881861931E-04
  0.00000000000000E+00  0.00000000000000E+00 -8.21936487361742E-05
  0.00000000000000E+00  0.00000000000000E+00 -5.83099420297068E-04
  0.00000000000000E+00  0.00000000000000E+00 -5.83099420297068E-04
  0.00000000000000E+00  0.00000000000000E+00  1.00333660746838E-03
 Reduced forces (fred)
  0.00000000000000E+00  0.00000000000000E+00 -1.80497535599499E-03
  0.00000000000000E+00  0.00000000000000E+00  6.06831404793630E-04
  0.00000000000000E+00  0.00000000000000E+00  4.29847283865792E-03
  0.00000000000000E+00  0.00000000000000E+00  4.29847283865792E-03
  0.00000000000000E+00  0.00000000000000E+00 -7.39345267863876E-03
 Total energy (etotal) [Ha]= -5.20828342469800E+01

 Difference of energy with previous step (new-old):
           Absolute (Ha)=-1.12004E-06
           Relative     =-2.15050E-08

--- Iteration: (29/45) Internal Cycle: (1/1)
--------------------------------------------------------------------------------

---SELF-CONSISTENT-FIELD CONVERGENCE--------------------------------------------

     iter   Etot(hartree)      deltaE(h)  residm     vres2
 ETOT  1  -52.082834907063    -5.208E+01 7.185E-06 1.427E-03
 ETOT  2  -52.082833336112     1.571E-06 5.621E-06 3.178E-03
 ETOT  3  -52.082834648823    -1.313E-06 9.240E-06 1.069E-04
 ETOT  4  -52.082835662737    -1.014E-06 4.672E-06 1.898E-05
 ETOT  5  -52.082835733835    -7.110E-08 8.628E-06 5.675E-06
 ETOT  6  -52.082835743288    -9.453E-09 3.898E-06 2.502E-06

 At SCF step    6, etot is converged : 
  for the second time, diff in etot=  9.453E-09 < toldfe=  1.000E-06

 Cartesian components of stress tensor (hartree/bohr^3)
  sigma(1 1)=  5.97651621E-03  sigma(3 2)=  0.00000000E+00
  sigma(2 2)=  5.97651621E-03  sigma(3 1)=  0.00000000E+00
  sigma(3 3)=  5.97642465E-03  sigma(2 1)=  0.00000000E+00
 

---OUTPUT-----------------------------------------------------------------------

 Cartesian coordinates (xcart) [bohr]
  0.00000000000000E+00  0.00000000000000E+00  0.00000000000000E+00
  3.68496595912700E+00  3.68496595912700E+00  3.69039869330938E+00
  0.00000000000000E+00  3.68496595912700E+00  3.70024026655865E+00
  3.68496595912700E+00  0.00000000000000E+00  3.70024026655865E+00
  3.68496595912700E+00  3.68496595912700E+00  8.50898139323065E-03
 Reduced coordinates (xred)
  0.00000000000000E+00  0.00000000000000E+00  0.00000000000000E+00
[...]
 kpt#  10, nband= 13, wtk=  0.01563, kpt=  0.4375  0.4375  0.0625 (reduced coord)
  -0.92911  -0.92667  -0.91887  -0.41142  -0.40907  -0.39837  -0.31302  -0.31046
  -0.29290  -0.28208  -0.27797  -0.25208  -0.02472
 kpt#  11, nband= 13, wtk=  0.01563, kpt=  0.0625  0.0625  0.1875 (reduced coord)
  -0.98044  -0.95293  -0.93964  -0.37906  -0.37708  -0.33301  -0.31349  -0.31021
  -0.29327  -0.28874  -0.25433  -0.25254  -0.10863
 kpt#  12, nband= 13, wtk=  0.03125, kpt=  0.1875  0.0625  0.1875 (reduced coord)
  -0.97814  -0.95220  -0.94057  -0.38676  -0.37620  -0.33338  -0.32375  -0.31916
  -0.30996  -0.29630  -0.25241  -0.25095  -0.09170
 kpt#  13, nband= 13, wtk=  0.03125, kpt=  0.3125  0.0625  0.1875 (reduced coord)
  -0.97479  -0.95092  -0.94261  -0.39896  -0.37360  -0.35049  -0.33871  -0.32303
  -0.31758  -0.30281  -0.25497  -0.25245  -0.06654
 kpt#  14, nband= 13, wtk=  0.03125, kpt=  0.4375  0.0625  0.1875 (reduced coord)
  -0.97219  -0.94877  -0.94561  -0.41118  -0.36854  -0.36221  -0.34916  -0.32446
  -0.32289  -0.30768  -0.25755  -0.25473  -0.06113
 kpt#  15, nband= 13, wtk=  0.01563, kpt=  0.1875  0.1875  0.1875 (reduced coord)
  -0.97619  -0.95173  -0.94141  -0.39223  -0.37876  -0.34583  -0.33643  -0.32138
  -0.31881  -0.29637  -0.25414  -0.25256  -0.08012
 kpt#  16, nband= 13, wtk=  0.03125, kpt=  0.3125  0.1875  0.1875 (reduced coord)
  -0.99412  -0.98027  -0.94697  -0.41400  -0.39384  -0.37960  -0.34146  -0.32488
  -0.31947  -0.31228  -0.25173  -0.24959  -0.06132
 kpt#  17, nband= 13, wtk=  0.03125, kpt=  0.4375  0.1875  0.1875 (reduced coord)
  -0.98959  -0.98290  -0.94741  -0.42505  -0.39895  -0.38679  -0.34673  -0.32784
  -0.31938  -0.31414  -0.25393  -0.25259  -0.04406
 kpt#  18, nband= 13, wtk=  0.01563, kpt=  0.3125  0.3125  0.1875 (reduced coord)
  -0.99025  -0.98096  -0.94770  -0.41960  -0.40284  -0.40250  -0.34116  -0.32949
  -0.31885  -0.30058  -0.25406  -0.25329  -0.04673
 kpt#  19, nband= 13, wtk=  0.03125, kpt=  0.4375  0.3125  0.1875 (reduced coord)
  -0.98638  -0.98251  -0.94831  -0.42690  -0.41526  -0.40432  -0.34190  -0.33320
  -0.31639  -0.29357  -0.25601  -0.25476  -0.02936
 kpt#  20, nband= 13, wtk=  0.01563, kpt=  0.4375  0.4375  0.1875 (reduced coord)
  -0.98378  -0.98243  -0.94909  -0.43181  -0.42373  -0.41226  -0.33866  -0.33614
  -0.31423  -0.28189  -0.25815  -0.25588  -0.01427
 kpt#  21, nband= 13, wtk=  0.01563, kpt=  0.0625  0.0625  0.3125 (reduced coord)
  -0.94753  -0.91798  -0.91340  -0.36664  -0.36509  -0.34171  -0.31171  -0.30672
  -0.29252  -0.28329  -0.27363  -0.25510  -0.11857
 kpt#  22, nband= 13, wtk=  0.03125, kpt=  0.1875  0.0625  0.3125 (reduced coord)
  -0.94460  -0.91906  -0.91322  -0.37700  -0.36403  -0.34312  -0.33097  -0.31400
  -0.30740  -0.29173  -0.26625  -0.24540  -0.10047
 kpt#  23, nband= 13, wtk=  0.03125, kpt=  0.3125  0.0625  0.3125 (reduced coord)
  -0.93963  -0.92110  -0.91302  -0.39249  -0.36071  -0.35212  -0.33843  -0.32945
  -0.31176  -0.30071  -0.26278  -0.23461  -0.07498
 kpt#  24, nband= 13, wtk=  0.03125, kpt=  0.4375  0.0625  0.3125 (reduced coord)
  -0.93480  -0.92398  -0.91291  -0.40555  -0.36426  -0.35237  -0.34333  -0.34047
  -0.31314  -0.30699  -0.26164  -0.23169  -0.05680
 kpt#  25, nband= 13, wtk=  0.01563, kpt=  0.1875  0.1875  0.3125 (reduced coord)
  -0.94181  -0.91967  -0.91327  -0.38000  -0.36797  -0.34304  -0.33501  -0.33116
  -0.32436  -0.28951  -0.25565  -0.24079  -0.08817
 kpt#  26, nband= 13, wtk=  0.03125, kpt=  0.3125  0.1875  0.3125 (reduced coord)
  -0.93869  -0.92314  -0.91396  -0.39499  -0.37244  -0.35445  -0.34988  -0.33885
  -0.32563  -0.28770  -0.25125  -0.23632  -0.06723
 kpt#  27, nband= 13, wtk=  0.03125, kpt=  0.4375  0.1875  0.3125 (reduced coord)
  -0.93405  -0.92562  -0.91402  -0.40703  -0.37494  -0.36322  -0.35693  -0.33964
  -0.32410  -0.28617  -0.25099  -0.23134  -0.04896
 kpt#  28, nband= 13, wtk=  0.01563, kpt=  0.3125  0.3125  0.3125 (reduced coord)
  -0.93452  -0.92392  -0.91447  -0.39778  -0.38481  -0.37688  -0.34896  -0.33955
  -0.33459  -0.27234  -0.24204  -0.23349  -0.05088
 kpt#  29, nband= 13, wtk=  0.03125, kpt=  0.4375  0.3125  0.3125 (reduced coord)
  -0.93040  -0.92553  -0.91494  -0.40801  -0.38995  -0.38742  -0.35229  -0.34291
  -0.33383  -0.26456  -0.24051  -0.23146  -0.03604
 kpt#  30, nband= 13, wtk=  0.01563, kpt=  0.4375  0.4375  0.3125 (reduced coord)
  -0.92715  -0.92571  -0.91599  -0.41342  -0.39805  -0.39783  -0.34910  -0.34815
  -0.33421  -0.25220  -0.23369  -0.23296  -0.02393
 kpt#  31, nband= 13, wtk=  0.01563, kpt=  0.0625  0.0625  0.4375 (reduced coord)
  -0.94447  -0.91975  -0.91812  -0.36528  -0.36494  -0.35398  -0.32362  -0.31682
  -0.29192  -0.28717  -0.28637  -0.26271  -0.11453
 kpt#  32, nband= 13, wtk=  0.03125, kpt=  0.1875  0.0625  0.4375 (reduced coord)
  -0.94185  -0.91941  -0.91901  -0.37610  -0.36246  -0.35447  -0.34525  -0.32138
  -0.30973  -0.29686  -0.27661  -0.24717  -0.09709
 kpt#  33, nband= 13, wtk=  0.03125, kpt=  0.3125  0.0625  0.4375 (reduced coord)
  -0.93731  -0.92106  -0.91878  -0.39330  -0.36416  -0.35830  -0.35279  -0.32849
  -0.31985  -0.30479  -0.26773  -0.23048  -0.07311
 kpt#  34, nband= 13, wtk=  0.03125, kpt=  0.4375  0.0625  0.4375 (reduced coord)
  -0.93296  -0.92364  -0.91833  -0.40494  -0.37242  -0.35312  -0.35120  -0.33837
  -0.32329  -0.30896  -0.26225  -0.22068  -0.05362
 kpt#  35, nband= 13, wtk=  0.01563, kpt=  0.1875  0.1875  0.4375 (reduced coord)
  -0.93928  -0.91978  -0.91913  -0.37894  -0.36879  -0.35411  -0.34832  -0.33555
  -0.33243  -0.29191  -0.26009  -0.24040  -0.08493
 kpt#  36, nband= 13, wtk=  0.03125, kpt=  0.3125  0.1875  0.4375 (reduced coord)
  -0.94668  -0.93335  -0.91354  -0.39810  -0.37514  -0.36002  -0.35568  -0.34981
  -0.33484  -0.29357  -0.25009  -0.22887  -0.06543
 kpt#  37, nband= 13, wtk=  0.03125, kpt=  0.4375  0.1875  0.4375 (reduced coord)
  -0.94252  -0.93562  -0.91332  -0.41010  -0.37471  -0.36619  -0.36465  -0.35077
  -0.33377  -0.29073  -0.24705  -0.22001  -0.04760
 kpt#  38, nband= 13, wtk=  0.01563, kpt=  0.3125  0.3125  0.4375 (reduced coord)
  -0.94313  -0.93418  -0.91359  -0.40183  -0.38888  -0.37759  -0.35822  -0.34879
  -0.34696  -0.27888  -0.23522  -0.22514  -0.05034
 kpt#  39, nband= 13, wtk=  0.03125, kpt=  0.4375  0.3125  0.4375 (reduced coord)
  -0.93962  -0.93575  -0.91364  -0.41214  -0.39109  -0.38799  -0.35994  -0.35115
  -0.34689  -0.26994  -0.23067  -0.21963  -0.03574
 kpt#  40, nband= 13, wtk=  0.01563, kpt=  0.4375  0.4375  0.4375 (reduced coord)
  -0.93722  -0.93609  -0.91390  -0.41754  -0.40266  -0.39678  -0.35609  -0.35398
  -0.35102  -0.25897  -0.22237  -0.22041  -0.02452
 Total charge density [el/Bohr^3]
,     Maximum=    7.3419E-01  at reduced coord.    0.4688    0.5625    0.2188
,Next maximum=    7.3419E-01  at reduced coord.    0.5313    0.5625    0.2188
,     Minimum=    2.2580E-05  at reduced coord.    0.0000    0.0000    0.0000
,Next minimum=    5.9667E-05  at reduced coord.    0.0000    0.0000    0.2188
,  Integrated=    2.4000E+01

--------------------------------------------------------------------------------
 Components of total free energy (in Hartree) :

    Kinetic energy  =  3.88194561756144E+01
    Hartree energy  =  1.58734624719147E+01
    XC energy       = -1.24891993770852E+01
    Ewald energy    = -3.58146226110416E+01
    PspCore energy  =  9.77269480650150E+00
    Loc. psp. energy= -2.57946817552351E+01
    NL   psp  energy= -4.75418251300031E+00
    >>>>>>>>> Etotal= -1.43870728023316E+01

 Other information on the energy :
    Total energy(eV)= -3.91492160646012E+02 ; Band energy (Ha)=  -1.3663291447E+01
--------------------------------------------------------------------------------
 rms coord change=  1.5764E-01   atom, delta coord (reduced):
     1        0.000000000000      0.000000000000      0.000000000000
     2        0.000000000000      0.000000000000      0.489095555959
     3        0.000000000000      0.000000000000      0.176090691530
     4        0.000000000000      0.000000000000      0.176090691530
     5        0.000000000000      0.000000000000      0.267438626016

 Cartesian components of stress tensor (hartree/bohr^3)
  sigma(1 1)= -3.43135529E-02  sigma(3 2)=  0.00000000E+00
  sigma(2 2)= -3.43135529E-02  sigma(3 1)=  0.00000000E+00
  sigma(3 3)= -8.81346736E-04  sigma(2 1)=  0.00000000E+00

-Cartesian components of stress tensor (GPa)         [Pressure=  6.8167E+02 GPa]
- sigma(1 1)= -1.00953941E+03  sigma(3 2)=  0.00000000E+00
- sigma(2 2)= -1.00953941E+03  sigma(3 1)=  0.00000000E+00
- sigma(3 3)= -2.59301118E+01  sigma(2 1)=  0.00000000E+00

== END DATASET(S) ==============================================================
================================================================================
  
 -outvars: echo values of variables after computation  --------
        accesswff           1
            acell      7.3699319183E+00  7.3699319183E+00  7.3699319183E+00 Bohr
              amu      8.76200000E+01  4.78800000E+01  1.59994000E+01
           diemac      5.00000000E+00
             ecut      1.46997302E+01 Hartree
           etotal1    -1.4387072802E+01
            fcart1     0.0000000000E+00  0.0000000000E+00  4.6808168198E+00
                       0.0000000000E+00  0.0000000000E+00  6.7393545411E-01
                       0.0000000000E+00  0.0000000000E+00 -5.3679295023E+00
                       0.0000000000E+00  0.0000000000E+00 -5.3679295023E+00
                       0.0000000000E+00  0.0000000000E+00  5.3811067308E+00
           fftalg         401
      fft_opt_lob           2
           iatfix        1
           ionmov           2
           iprcch           6
              ixc           7
           jdtset        1
              kpt      6.25000000E-02  6.25000000E-02  6.25000000E-02
                       1.87500000E-01  6.25000000E-02  6.25000000E-02
                       3.12500000E-01  6.25000000E-02  6.25000000E-02
                       4.37500000E-01  6.25000000E-02  6.25000000E-02
                       1.87500000E-01  1.87500000E-01  6.25000000E-02
                       3.12500000E-01  1.87500000E-01  6.25000000E-02
                       4.37500000E-01  1.87500000E-01  6.25000000E-02
                       3.12500000E-01  3.12500000E-01  6.25000000E-02
                       4.37500000E-01  3.12500000E-01  6.25000000E-02
                       4.37500000E-01  4.37500000E-01  6.25000000E-02
                       6.25000000E-02  6.25000000E-02  1.87500000E-01
                       1.87500000E-01  6.25000000E-02  1.87500000E-01
                       3.12500000E-01  6.25000000E-02  1.87500000E-01
                       4.37500000E-01  6.25000000E-02  1.87500000E-01
                       1.87500000E-01  1.87500000E-01  1.87500000E-01
                       3.12500000E-01  1.87500000E-01  1.87500000E-01
                       4.37500000E-01  1.87500000E-01  1.87500000E-01
                       3.12500000E-01  3.12500000E-01  1.87500000E-01
                       4.37500000E-01  3.12500000E-01  1.87500000E-01
                       4.37500000E-01  4.37500000E-01  1.87500000E-01
                       6.25000000E-02  6.25000000E-02  3.12500000E-01
                       1.87500000E-01  6.25000000E-02  3.12500000E-01
                       3.12500000E-01  6.25000000E-02  3.12500000E-01
                       4.37500000E-01  6.25000000E-02  3.12500000E-01
                       1.87500000E-01  1.87500000E-01  3.12500000E-01
                       3.12500000E-01  1.87500000E-01  3.12500000E-01
                       4.37500000E-01  1.87500000E-01  3.12500000E-01
                       3.12500000E-01  3.12500000E-01  3.12500000E-01
                       4.37500000E-01  3.12500000E-01  3.12500000E-01
                       4.37500000E-01  4.37500000E-01  3.12500000E-01
                       6.25000000E-02  6.25000000E-02  4.37500000E-01
                       1.87500000E-01  6.25000000E-02  4.37500000E-01
                       3.12500000E-01  6.25000000E-02  4.37500000E-01
                       4.37500000E-01  6.25000000E-02  4.37500000E-01
                       1.87500000E-01  1.87500000E-01  4.37500000E-01
                       3.12500000E-01  1.87500000E-01  4.37500000E-01
                       4.37500000E-01  1.87500000E-01  4.37500000E-01
                       3.12500000E-01  3.12500000E-01  4.37500000E-01
                       4.37500000E-01  3.12500000E-01  4.37500000E-01
                       4.37500000E-01  4.37500000E-01  4.37500000E-01
         kptrlatt        8    0    0      0    8    0      0    0    8
          kptrlen      5.89594553E+01
P           mkmem           5
           natfix           1
            natom           5
            nband          13
           ndtset           1
            ngfft          32      32      32
             nkpt          40
            npfft           4
-           npkpt           8
            nstep         150
             nsym           8
            ntime          25
           ntypat           3
              occ      2.000000  2.000000  2.000000  2.000000  2.000000  2.000000
                       2.000000  2.000000  2.000000  2.000000  2.000000  2.000000
                       0.000000
           ortalg          -2
        paral_kgb           1
           prteig           0
        restartxf          -1
           shiftk      5.00000000E-01  5.00000000E-01  5.00000000E-01
          spgroup          99
           strten1    -3.4313552876E-02 -3.4313552876E-02 -8.8134673599E-04
                       0.0000000000E+00  0.0000000000E+00  0.0000000000E+00
           symrel      1  0  0   0  1  0   0  0  1       1  0  0   0 -1  0   0  0  1
                      -1  0  0   0 -1  0   0  0  1      -1  0  0   0  1  0   0  0  1
                       0  1  0   1  0  0   0  0  1       0  1  0  -1  0  0   0  0  1
                       0 -1  0  -1  0  0   0  0  1       0 -1  0   1  0  0   0  0  1
           toldfe      1.00000000E-06 Hartree
           tolmxf      1.00000000E-05
            typat      1  2  3  3  3
         wfoptalg          14
              wtk        0.01563    0.03125    0.03125    0.03125    0.01563    0.03125
                         0.03125    0.01563    0.03125    0.01563    0.01563    0.03125
                         0.03125    0.03125    0.01563    0.03125    0.03125    0.01563
                         0.03125    0.01563    0.01563    0.03125    0.03125    0.03125
                         0.01563    0.03125    0.03125    0.01563    0.03125    0.01563
                         0.01563    0.03125    0.03125    0.03125    0.01563    0.03125
                         0.03125    0.01563    0.03125    0.01563
           xangst      0.0000000000E+00  0.0000000000E+00  0.0000000000E+00
                       1.9500000000E+00  1.9500000000E+00  3.8769726682E+00
                       0.0000000000E+00  1.9500000000E+00  2.6367536970E+00
                       1.9500000000E+00  0.0000000000E+00  2.6367536970E+00
                       1.9500000000E+00  1.9500000000E+00  1.0430106415E+00
            xcart      0.0000000000E+00  0.0000000000E+00  0.0000000000E+00
                       3.6849659591E+00  3.6849659591E+00  7.3264165677E+00
                       0.0000000000E+00  3.6849659591E+00  4.9827423671E+00
                       3.6849659591E+00  0.0000000000E+00  4.9827423671E+00
                       3.6849659591E+00  3.6849659591E+00  1.9710044660E+00
             xred      0.0000000000E+00  0.0000000000E+00  0.0000000000E+00
                       5.0000000000E-01  5.0000000000E-01  9.9409555596E-01
                       0.0000000000E+00  5.0000000000E-01  6.7609069153E-01
                       5.0000000000E-01  0.0000000000E+00  6.7609069153E-01
                       5.0000000000E-01  5.0000000000E-01  2.6743862602E-01
            znucl       38.00000   22.00000    8.00000

================================================================================


- Timing analysis has been suppressed with timopt=0



================================================================================

 Suggested references for the acknowledgment of ABINIT usage.

 The users of ABINIT have little formal obligations with respect to the ABINIT group
 (those specified in the GNU General Public License, http://www.gnu.org/copyleft/gpl.txt).
 However, it is common practice in the scientific literature,
 to acknowledge the efforts of people that have made the research possible.
 In this spirit, please find below suggested citations of work written by ABINIT developers,
 corresponding to implementations inside of ABINIT that you have used in the present run.
 Note also that it will be of great value to readers of publications presenting these results,
 to read papers enabling them to understand the theoretical formalism and details
 of the ABINIT implementation.
 For information on why they are suggested, see also http://www.abinit.org/about/?text=acknowledgments.

 [1] Large scale ab initio calculations based on three levels of parallelization
 F. Bottin, S. Leroux, A. Knyazev, G. Zerah, Comput. Mat. Science 42, 329, (2008).
 Comment : in case paral_kgb is non-zero. Strong suggestion to cite this paper in your publications.
 This paper is also available at http://www.arxiv.org/abs/0707.3405

 [2] Ab initio pseudopotentials for electronic structure calculations of poly-atomic systems, 
 using density-functional theory.
 M. Fuchs, M. Scheffler, Comput. Phys. Commun. 119, 67 (1999).
 Comment : Some pseudopotential generated using the FHI code were used.

 [3] ABINIT : First-principles approach of materials and nanosystem properties.
 X. Gonze, B. Amadon, P.-M. Anglade, J.-M. Beuken, F. Bottin, P. Boulanger, F. Bruneval,
 D. Caliste, R. Caracas, M. Cote, T. Deutsch, L. Genovese, Ph. Ghosez, M. Giantomassi
 S. Goedecker, D.R. Hamann, P. Hermet, F. Jollet, G. Jomard, S. Leroux, M. Mancini, S. Mazevet,
 M.J.T. Oliveira, G. Onida, Y. Pouillon, T. Rangel, G.-M. Rignanese, D. Sangalli, R. Shaltaf,
 M. Torrent, M.J. Verstraete, G. Zerah, J.W. Zwanziger
 Computer Phys. Comm. 180, 2582-2615 (2009).
 Comment : the third generic paper describing the ABINIT project.
 Note that a version of this paper, that is not formatted for Computer Phys. Comm. 
 is available at http://www.abinit.org/about/ABINIT_CPC_v10.pdf .
 The licence allows the authors to put it on the Web.

 [4] A brief introduction to the ABINIT software package.
 X. Gonze, G.-M. Rignanese, M. Verstraete, J.-M. Beuken, Y. Pouillon, R. Caracas, F. Jollet,
 M. Torrent, G. Zerah, M. Mikami, Ph. Ghosez, M. Veithen, J.-Y. Raty, V. Olevano, F. Bruneval,
 L. Reining, R. Godby, G. Onida, D.R. Hamann, and D.C. Allan.
 Z. Kristallogr. 220, 558-562 (2005).
 Comment : the second generic paper describing the ABINIT project. Note that this paper
 should be cited especially if you are using the GW part of ABINIT, as several authors
 of this part are not in the list of authors of the first or third paper.
 The .pdf of the latter paper is available at http://www.abinit.org/about/zfk_0505-06_558-562.pdf.
 Note that it should not redistributed (Copyright by Oldenburg Wissenshaftverlag,
 the licence allows the authors to put it on the Web).


 And optionally :

 [5] First-principles computation of material properties : the ABINIT software project. 
 X. Gonze, J.-M. Beuken, R. Caracas, F. Detraux, M. Fuchs, G.-M. Rignanese, L. Sindic,
 M. Verstraete, G. Zerah, F. Jollet, M. Torrent, A. Roy, M. Mikami, Ph. Ghosez, J.-Y. Raty, D.C. Allan.
 Computational Materials Science 25, 478-492 (2002). http://dx.doi.org/10.1016/S0927-0256(02)00325-7
 Comment : the original paper describing the ABINIT project.
-
- Proc.   0 individual time (sec): cpu=        187.0  wall=        194.6

================================================================================

 Calculation completed.
.Delivered   13 WARNINGs and  55 COMMENTs to log file.
+Overall time at end (sec) : cpu=       6033.3  wall=       6228.3
